 vasp.5.4.4.18Apr17-6-g9f103f2a35 (build Jun 23 2019 22:08:10) complex          
  
 executed on               Archer date 2019.06.24  07:57:28
 running on    1 total cores
 distrk:  each k-point on    1 cores,    1 groups
 distr:  one band on NCORES_PER_BAND=   1 cores,    1 groups


--------------------------------------------------------------------------------------------------------


 INCAR:
 POTCAR:    PAW Al 17Apr2000                      
 POTCAR:    PAW Al 17Apr2000                      
   VRHFIN =Al: s2p1                                                             
   LEXCH  = CA                                                                  
   EATOM  =    53.7930 eV,    3.9537 Ry                                         
                                                                                
   TITEL  = PAW Al 17Apr2000                                                    
   LULTRA =        F    use ultrasoft PP ?                                      
   IUNSCR =        1    unscreen: 0-lin 1-nonlin 2-no                           
   RPACOR =    1.500    partial core radius                                     
   POMASS =   26.981; ZVAL   =    3.000    mass and valenz                      
   RCORE  =    1.900    outmost cutoff radius                                   
   RWIGS  =    2.650; RWIGS  =    1.402    wigner-seitz radius (au A)           
   ENMAX  =  240.957; ENMIN  =  180.718 eV                                      
   ICORE  =        2    local potential                                         
   LCOR   =        T    correct aug charges                                     
   LPAW   =        T    paw PP                                                  
   EAUG   =  291.052                                                            
   DEXC   =    0.000                                                            
   RMAX   =    1.939    core radius for proj-oper                               
   RAUG   =    1.300    factor for augmentation sphere                          
   RDEP   =    1.966    radius for radial grids                                 
   RDEPT  =    1.871    core radius for aug-charge                              
                                                                                
   Atomic configuration                                                         
    6 entries                                                                   
     n  l   j            E        occ.                                          
     1  0  0.50     -1502.2303   2.0000                                         
     2  0  0.50      -107.3893   2.0000                                         
     2  1  1.50       -69.6946   6.0000                                         
     3  0  0.50        -7.8312   2.0000                                         
     3  1  1.50        -2.7901   1.0000                                         
     3  2  2.50        -2.7212   0.0000                                         
   Description                                                                  
     l       E           TYP  RCUT    TYP  RCUT                                 
     0     -7.8312058     23  1.900                                             
     0     -3.5156079     23  1.900                                             
     1     -2.7900872     23  1.900                                             
     1     13.6058260     23  1.900                                             
     2     -2.7211652      7  1.900                                             
  local pseudopotential read in
  partial core-charges read in
  partial kinetic energy density read in
  atomic valenz-charges read in
  non local Contribution for L=           0  read in
    real space projection operators read in
  non local Contribution for L=           0  read in
    real space projection operators read in
  non local Contribution for L=           1  read in
    real space projection operators read in
  non local Contribution for L=           1  read in
    real space projection operators read in
    PAW grid and wavefunctions read in
 
   number of l-projection  operators is LMAX  =           4
   number of lm-projection operators is LMMAX =           8
 
  PAW Al 17Apr2000                      :
 energy of atom  1       EATOM=  -53.7930
 kinetic energy error for atom=    0.0031 (will be added to EATOM!!)
 
 
 POSCAR: al                                      
  positions in direct lattice
  No initial velocities read in
 exchange correlation table for  LEXCH =        2
   RHO(1)=    0.500       N(1)  =     2000
   RHO(2)=  100.500       N(2)  =     4000
 


--------------------------------------------------------------------------------------------------------


 ion  position               nearest neighbor table
   1  0.000  0.000  0.000-   2 3.32   3 3.32   4 3.32   2 3.32   3 3.32   2 3.32   4 3.32   2 3.32
                             3 3.32   4 3.32   3 3.32   4 3.32
   2  0.000  0.500  0.500-   1 3.32   3 3.32   4 3.32   1 3.32   4 3.32   1 3.32   3 3.32   1 3.32
                             3 3.32   4 3.32   4 3.32   3 3.32
   3  0.500  0.000  0.500-   1 3.32   2 3.32   4 3.32   1 3.32   4 3.32   2 3.32   4 3.32   4 3.32
                             1 3.32   2 3.32   1 3.32   2 3.32
   4  0.500  0.500  0.000-   1 3.32   2 3.32   3 3.32   2 3.32   3 3.32   1 3.32   3 3.32   3 3.32
                             1 3.32   2 3.32   2 3.32   1 3.32
 

IMPORTANT INFORMATION: All symmetrisations will be switched off!
NOSYMM: (Re-)initialisation of all symmetry stuff for point group C_1.

 
 
 KPOINTS: 2 2 2                                   

Automatic generation of k-mesh.
Space group operators:
 irot       det(A)        alpha          n_x          n_y          n_z        tau_x        tau_y        tau_z
    1     1.000000     0.000000     1.000000     0.000000     0.000000     0.000000     0.000000     0.000000
 
 Subroutine IBZKPT returns following result:
 ===========================================
 
 Found      8 irreducible k-points:
 
 Following reciprocal coordinates:
            Coordinates               Weight
  0.000000  0.000000  0.000000      1.000000
  0.500000  0.000000  0.000000      1.000000
  0.000000  0.500000  0.000000      1.000000
  0.500000  0.500000  0.000000      1.000000
  0.000000  0.000000  0.500000      1.000000
  0.500000  0.000000  0.500000      1.000000
  0.000000  0.500000  0.500000      1.000000
  0.500000  0.500000  0.500000      1.000000
 
 Following cartesian coordinates:
            Coordinates               Weight
  0.000000  0.000000  0.000000      1.000000
  0.106383  0.000000  0.000000      1.000000
  0.000000  0.106383  0.000000      1.000000
  0.106383  0.106383  0.000000      1.000000
  0.000000  0.000000  0.106383      1.000000
  0.106383  0.000000  0.106383      1.000000
  0.000000  0.106383  0.106383      1.000000
  0.106383  0.106383  0.106383      1.000000
 


--------------------------------------------------------------------------------------------------------




 Dimension of arrays:
   k-points           NKPTS =      8   k-points in BZ     NKDIM =      8   number of bands    NBANDS=     10
   number of dos      NEDOS =   2000   number of ions     NIONS =      4
   non local maximal  LDIM  =      4   non local SUM 2l+1 LMDIM =      8
   total plane-waves  NPLWV =   5832
   max r-space proj   IRMAX =      1   max aug-charges    IRDMAX=   2385
   dimension x,y,z NGX =    18 NGY =   18 NGZ =   18
   dimension x,y,z NGXF=    36 NGYF=   36 NGZF=   36
   support grid    NGXF=    36 NGYF=   36 NGZF=   36
   ions per type =               4
   NGX,Y,Z   is equivalent  to a cutoff of   6.37,  6.37,  6.37 a.u.
   NGXF,Y,Z  is equivalent  to a cutoff of  12.73, 12.73, 12.73 a.u.

 SYSTEM =  unknown system                          
 POSCAR =  al                                      

 Startparameter for this run:
   NWRITE =      2    write-flag & timer
   PREC   = normal    normal or accurate (medium, high low for compatibility)
   ISTART =      1    job   : 0-new  1-cont  2-samecut
   ICHARG =      1    charge: 1-file 2-atom 10-const
   ISPIN  =      1    spin polarized calculation?
   LNONCOLLINEAR =      F non collinear calculations
   LSORBIT =      F    spin-orbit coupling
   INIWAV =      1    electr: 0-lowe 1-rand  2-diag
   LASPH  =      F    aspherical Exc in radial PAW
   METAGGA=      F    non-selfconsistent MetaGGA calc.

 Electronic Relaxation 1
   ENCUT  =  241.0 eV  17.71 Ry    4.21 a.u.   5.95  5.95  5.95*2*pi/ulx,y,z
   ENINI  =  241.0     initial cutoff
   ENAUG  =  291.1 eV  augmentation charge cutoff
   NELM   =     60;   NELMIN=  2; NELMDL=  0     # of ELM steps 
   EDIFF  = 0.1E-03   stopping-criterion for ELM
   LREAL  =      F    real-space projection
   NLSPLINE    = F    spline interpolate recip. space projectors
   LCOMPAT=      F    compatible to vasp.4.4
   GGA_COMPAT  = T    GGA compatible to vasp.4.4-vasp.4.6
   LMAXPAW     = -100 max onsite density
   LMAXMIX     =    2 max onsite mixed and CHGCAR
   VOSKOWN=      0    Vosko Wilk Nusair interpolation
   ROPT   =    0.00000
 Ionic relaxation
   EDIFFG = 0.1E-02   stopping-criterion for IOM
   NSW    =      0    number of steps for IOM
   NBLOCK =      1;   KBLOCK =      1    inner block; outer block 
   IBRION =     -1    ionic relax: 0-MD 1-quasi-New 2-CG
   NFREE  =      0    steps in history (QN), initial steepest desc. (CG)
   ISIF   =      2    stress and relaxation
   IWAVPR =     10    prediction:  0-non 1-charg 2-wave 3-comb
   ISYM   =     -1    0-nonsym 1-usesym 2-fastsym
   LCORR  =      T    Harris-Foulkes like correction to forces

   POTIM  = 0.5000    time-step for ionic-motion
   TEIN   =    0.0    initial temperature
   TEBEG  =    0.0;   TEEND  =   0.0 temperature during run
   SMASS  =  -3.00    Nose mass-parameter (am)
   estimated Nose-frequenzy (Omega)   =  0.10E-29 period in steps =****** mass=  -0.505E-27a.u.
   SCALEE = 1.0000    scale energy and forces
   NPACO  =    256;   APACO  = 16.0  distance and # of slots for P.C.
   PSTRESS=    0.0 pullay stress

  Mass of Ions in am
   POMASS =  26.98
  Ionic Valenz
   ZVAL   =   3.00
  Atomic Wigner-Seitz radii
   RWIGS  =  -1.00
  virtual crystal weights 
   VCA    =   1.00
   NELECT =      12.0000    total number of electrons
   NUPDOWN=      -1.0000    fix difference up-down

 DOS related values:
   EMIN   =  10.00;   EMAX   =-10.00  energy-range for DOS
   EFERMI =   0.00
   ISMEAR =    -1;   SIGMA  =   0.03  broadening in eV -4-tet -1-fermi 0-gaus

 Electronic relaxation 2 (details)
   IALGO  =     90    algorithm
   LDIAG  =      T    sub-space diagonalisation (order eigenvalues)
   LSUBROT=      F    optimize rotation matrix (better conditioning)
   TURBO    =      0    0=normal 1=particle mesh
   IRESTART =      0    0=no restart 2=restart with 2 vectors
   NREBOOT  =      0    no. of reboots
   NMIN     =      0    reboot dimension
   EREF     =   0.00    reference energy to select bands
   IMIX   =      4    mixing-type and parameters
     AMIX     =   0.40;   BMIX     =  1.00
     AMIX_MAG =   1.60;   BMIX_MAG =  1.00
     AMIN     =   0.10
     WC   =   100.;   INIMIX=   1;  MIXPRE=   1;  MAXMIX= -45

 Intra band minimization:
   WEIMIN = 0.0000     energy-eigenvalue tresh-hold
   EBREAK =  0.25E-05  absolut break condition
   DEPER  =   0.30     relativ break condition  

   TIME   =   0.40     timestep for ELM

  volume/ion in A,a.u.               =      25.96       175.16
  Fermi-wavevector in a.u.,A,eV,Ry     =   0.797451  1.506964  8.652329  0.635928
  Thomas-Fermi vector in A             =   1.904171
 
 Write flags
   LWAVE        =      T    write WAVECAR
   LDOWNSAMPLE  =      F    k-point downsampling of WAVECAR
   LCHARG       =      T    write CHGCAR
   LVTOT        =      F    write LOCPOT, total local potential
   LVHAR        =      F    write LOCPOT, Hartree potential only
   LELF         =      F    write electronic localiz. function (ELF)
   LORBIT       =      0    0 simple, 1 ext, 2 COOP (PROOUT), +10 PAW based schemes


 Dipole corrections
   LMONO  =      F    monopole corrections only (constant potential shift)
   LDIPOL =      F    correct potential (dipole corrections)
   IDIPOL =      0    1-x, 2-y, 3-z, 4-all directions 
   EPSILON=  1.0000000 bulk dielectric constant

 Exchange correlation treatment:
   GGA     =    --    GGA type
   LEXCH   =     2    internal setting for exchange type
   VOSKOWN=      0    Vosko Wilk Nusair interpolation
   LHFCALC =     F    Hartree Fock is set to
   LHFONE  =     F    Hartree Fock one center treatment
   AEXX    =    0.0000 exact exchange contribution

 Linear response parameters
   LEPSILON=     F    determine dielectric tensor
   LRPA    =     F    only Hartree local field effects (RPA)
   LNABLA  =     F    use nabla operator in PAW spheres
   LVEL    =     F    velocity operator in full k-point grid
   LINTERFAST=   F  fast interpolation
   KINTER  =     0    interpolate to denser k-point grid
   CSHIFT  =0.1000    complex shift for real part using Kramers Kronig
   OMEGAMAX=  -1.0    maximum frequency
   DEG_THRESHOLD= 0.2000000E-02 threshold for treating states as degnerate
   RTIME   =   -0.100 relaxation time in fs
  (WPLASMAI=    0.000 imaginary part of plasma frequency in eV, 0.658/RTIME)
   DFIELD  = 0.0000000 0.0000000 0.0000000 field for delta impulse in time
 
 Orbital magnetization related:
   ORBITALMAG=     F  switch on orbital magnetization
   LCHIMAG   =     F  perturbation theory with respect to B field
   DQ        =  0.001000  dq finite difference perturbation B field
   LLRAUG    =     F  two centre corrections for induced B field



--------------------------------------------------------------------------------------------------------


 Static calculation
 charge density and potential will be updated during run
 non-spin polarized calculation
 Exact diagonalization
 preconditioned conjugated gradient (Jacobi prec)
    charged. constant during bandupdate  
    band-by band algorithm
 perform sub-space diagonalisation
    after iterative eigenvector-optimisation
 modified Broyden-mixing scheme, WC =      100.0
 initial mixing is a Kerker type mixing with AMIX =  0.4000 and BMIX =      1.0000
 Hartree-type preconditioning will be used
 using additional bands            4
 reciprocal scheme for non local part
 use partial core corrections
 calculate Harris-corrections to forces 
   (improved forces if not selfconsistent)
 use of overlap-Matrix (Vanderbilt PP)
 Fermi-smearing in eV        SIGMA  =   0.03


--------------------------------------------------------------------------------------------------------


  energy-cutoff  :      240.96
  volume of cell :      103.82
      direct lattice vectors                 reciprocal lattice vectors
     4.700000000  0.000000000  0.000000000     0.212765957  0.000000000  0.000000000
     0.000000000  4.700000000  0.000000000     0.000000000  0.212765957  0.000000000
     0.000000000  0.000000000  4.700000000     0.000000000  0.000000000  0.212765957

  length of vectors
     4.700000000  4.700000000  4.700000000     0.212765957  0.212765957  0.212765957


 
 old parameters found on file WAVECAR:
  energy-cutoff  :      240.96
  volume of cell :      103.82
      direct lattice vectors                 reciprocal lattice vectors
     4.700000000  0.000000000  0.000000000     0.212765957  0.000000000  0.000000000
     0.000000000  4.700000000  0.000000000     0.000000000  0.212765957  0.000000000
     0.000000000  0.000000000  4.700000000     0.000000000  0.000000000  0.212765957

  length of vectors

 
 k-points in units of 2pi/SCALE and weight: 2 2 2                                   
   0.00000000  0.00000000  0.00000000       0.125
   0.10638298  0.00000000  0.00000000       0.125
   0.00000000  0.10638298  0.00000000       0.125
   0.10638298  0.10638298  0.00000000       0.125
   0.00000000  0.00000000  0.10638298       0.125
   0.10638298  0.00000000  0.10638298       0.125
   0.00000000  0.10638298  0.10638298       0.125
   0.10638298  0.10638298  0.10638298       0.125
 
 k-points in reciprocal lattice and weights: 2 2 2                                   
   0.00000000  0.00000000  0.00000000       0.125
   0.50000000  0.00000000  0.00000000       0.125
   0.00000000  0.50000000  0.00000000       0.125
   0.50000000  0.50000000  0.00000000       0.125
   0.00000000  0.00000000  0.50000000       0.125
   0.50000000  0.00000000  0.50000000       0.125
   0.00000000  0.50000000  0.50000000       0.125
   0.50000000  0.50000000  0.50000000       0.125
 
 position of ions in fractional coordinates (direct lattice) 
   0.00000000  0.00000000  0.00000000
   0.00000000  0.50000000  0.50000000
   0.50000000  0.00000000  0.50000000
   0.50000000  0.50000000  0.00000000
 
 position of ions in cartesian coordinates  (Angst):
   0.00000000  0.00000000  0.00000000
   0.00000000  2.35000000  2.35000000
   2.35000000  0.00000000  2.35000000
   2.35000000  2.35000000  0.00000000
 


--------------------------------------------------------------------------------------------------------


 k-point  1 :   0.0000 0.0000 0.0000  plane waves:     895
 k-point  2 :   0.5000 0.0000 0.0000  plane waves:     884
 k-point  3 :   0.0000 0.5000 0.0000  plane waves:     884
 k-point  4 :   0.5000 0.5000 0.0000  plane waves:     872
 k-point  5 :   0.0000 0.0000 0.5000  plane waves:     884
 k-point  6 :   0.5000 0.0000 0.5000  plane waves:     872
 k-point  7 :   0.0000 0.5000 0.5000  plane waves:     872
 k-point  8 :   0.5000 0.5000 0.5000  plane waves:     912

 maximum and minimum number of plane-waves per node :       912      872

 maximum number of plane-waves:       912
 maximum index in each direction: 
   IXMAX=    5   IYMAX=    5   IZMAX=    5
   IXMIN=   -6   IYMIN=   -6   IZMIN=   -6


 serial   3D FFT for wavefunctions
 parallel 3D FFT for charge:
    minimum data exchange during FFTs selected (reduces bandwidth)


 total amount of memory used by VASP MPI-rank0    35981. kBytes
=======================================================================

   base      :      30000. kBytes
   nonl-proj :        525. kBytes
   fftplans  :       1676. kBytes
   grid      :       2560. kBytes
   one-center:         12. kBytes
   wavefun   :       1208. kBytes
 
     INWAV:  cpu time    0.0040: real time    0.0063
 Broyden mixing: mesh for mixing (old mesh)
   NGX = 11   NGY = 11   NGZ = 11
  (NGX  = 36   NGY  = 36   NGZ  = 36)
  gives a total of   1331 points

 initial charge density was supplied:
 number of electron      12.0000001 magnetization 
 keeping initial charge density in first step


--------------------------------------------------------------------------------------------------------


 Maximum index for augmentation-charges         2103 (set IRDMAX)


--------------------------------------------------------------------------------------------------------


 First call to EWALD:  gamma=   0.377
 Maximum number of real-space cells 3x 3x 3
 Maximum number of reciprocal cells 3x 3x 3

    FEWALD:  cpu time    0.0000: real time    0.0011


--------------------------------------- Iteration      1(   1)  ---------------------------------------


    POTLOK:  cpu time    0.0040: real time    0.0196
    SETDIJ:  cpu time    0.0040: real time    0.0027

 total amount of memory used by VASP MPI-rank0   146179. kBytes
=======================================================================

   base      :      30000. kBytes
   nonl-proj :        525. kBytes
   fftplans  :       1676. kBytes
   grid      :       2560. kBytes
   one-center:         12. kBytes
   wavefun   :     111406. kBytes
 
    EDDIAG:  cpu time   16.2890: real time   16.2980
       DOS:  cpu time    0.0000: real time    0.0003
    CHARGE:  cpu time    0.0040: real time    0.0065
    MIXING:  cpu time    0.0040: real time    0.0008
    --------------------------------------------
      LOOP:  cpu time   16.3050: real time   16.3281

 eigenvalue-minimisations  :     0
 total energy-change (2. order) :-0.1277282E+02  ( 0.0000000E+00)
 number of electron      12.0000001 magnetization 
 augmentation part       -0.2621161 magnetization 

 Broyden mixing:
  rms(total) = 0.67995E-03    rms(broyden)= 0.67982E-03
  rms(prec ) = 0.73242E-03
  weight for this iteration     100.00

 Free energy of the ion-electron system (eV)
  ---------------------------------------------------
  alpha Z        PSCENC =        -0.52171640
  Ewald energy   TEWEN  =      -252.84653141
  -Hartree energ DENC   =        -1.75916164
  -exchange      EXHF   =         0.00000000
  -V(xc)+E(xc)   XCENC  =      -104.24437008
  PAW double counting   =       389.63527367     -265.41785412
  entropy T*S    EENTRO =        -0.04217513
  eigenvalues    EBANDS =         7.26413385
  atomic energy  EATOM  =       215.15958011
  Solvation  Ediel_sol  =         0.00000000
  ---------------------------------------------------
  free energy    TOTEN  =       -12.77282116 eV

  energy without entropy =      -12.73064602  energy(sigma->0) =      -12.75173359


--------------------------------------------------------------------------------------------------------




--------------------------------------- Iteration      1(   2)  ---------------------------------------


    POTLOK:  cpu time    0.0040: real time    0.0064
    SETDIJ:  cpu time    0.0000: real time    0.0029

 total amount of memory used by VASP MPI-rank0   146179. kBytes
=======================================================================

   base      :      30000. kBytes
   nonl-proj :        525. kBytes
   fftplans  :       1676. kBytes
   grid      :       2560. kBytes
   one-center:         12. kBytes
   wavefun   :     111406. kBytes
 
    EDDIAG:  cpu time   16.2650: real time   16.2752
       DOS:  cpu time    0.0000: real time    0.0003
    --------------------------------------------
      LOOP:  cpu time   16.2690: real time   16.2847

 eigenvalue-minimisations  :     0
 total energy-change (2. order) : 0.2121090E-06  ( 0.0000000E+00)
 number of electron      12.0000001 magnetization 
 augmentation part       -0.2621161 magnetization 

 Free energy of the ion-electron system (eV)
  ---------------------------------------------------
  alpha Z        PSCENC =        -0.52171640
  Ewald energy   TEWEN  =      -252.84653141
  -Hartree energ DENC   =        -1.75937470
  -exchange      EXHF   =         0.00000000
  -V(xc)+E(xc)   XCENC  =      -104.24446404
  PAW double counting   =       389.17415973     -264.95639394
  entropy T*S    EENTRO =        -0.04217514
  eigenvalues    EBANDS =         7.26409485
  atomic energy  EATOM  =       215.15958011
  Solvation  Ediel_sol  =         0.00000000
  ---------------------------------------------------
  free energy    TOTEN  =       -12.77282094 eV

  energy without entropy =      -12.73064581  energy(sigma->0) =      -12.75173338


--------------------------------------------------------------------------------------------------------




 average (electrostatic) potential at core
  the test charge radii are     1.0406
  (the norm of the test charge is              1.0000)
       1 -75.0753       2 -75.0752       3 -75.0753       4 -75.0753
 
 
 
 E-fermi :   3.6321     XC(G=0):  -8.7369     alpha+bet : -9.4093


 k-point     1 :       0.0000    0.0000    0.0000
  band No.  band energies     occupation 
      1      -4.4904      2.00000
      2       1.9731      2.00000
      3       1.9731      2.00000
      4       1.9732      2.00000
      5       2.0321      2.00000
      6       2.0321      2.00000
      7       2.0321      2.00000
      8       7.7220      0.00000
      9       7.7220      0.00000
     10       7.7220      0.00000

 k-point     2 :       0.5000    0.0000    0.0000
  band No.  band energies     occupation 
      1      -2.8403      2.00000
      2      -2.8403      2.00000
      3       2.8512      2.00000
      4       2.8513      2.00000
      5       3.6046      1.50001
      6       3.6046      1.50001
      7       3.6046      1.50000
      8       3.6046      1.50000
      9       4.7017      0.00000
     10       4.7017      0.00000

 k-point     3 :       0.0000    0.5000    0.0000
  band No.  band energies     occupation 
      1      -2.8403      2.00000
      2      -2.8403      2.00000
      3       2.8512      2.00000
      4       2.8513      2.00000
      5       3.6046      1.50010
      6       3.6046      1.50010
      7       3.6046      1.49990
      8       3.6046      1.49990
      9       4.7017      0.00000
     10       4.7017      0.00000

 k-point     4 :       0.5000    0.5000    0.0000
  band No.  band energies     occupation 
      1      -1.2200      2.00000
      2      -1.2200      2.00000
      3      -1.2200      2.00000
      4      -1.2200      2.00000
      5       5.1713      0.00000
      6       5.1713      0.00000
      7       5.1713      0.00000
      8       5.1713      0.00000
      9       5.3397      0.00000
     10       5.3397      0.00000

 k-point     5 :       0.0000    0.0000    0.5000
  band No.  band energies     occupation 
      1      -2.8403      2.00000
      2      -2.8403      2.00000
      3       2.8512      2.00000
      4       2.8513      2.00000
      5       3.6046      1.50009
      6       3.6046      1.50009
      7       3.6046      1.49991
      8       3.6046      1.49991
      9       4.7017      0.00000
     10       4.7017      0.00000

 k-point     6 :       0.5000    0.0000    0.5000
  band No.  band energies     occupation 
      1      -1.2200      2.00000
      2      -1.2200      2.00000
      3      -1.2200      2.00000
      4      -1.2200      2.00000
      5       5.1713      0.00000
      6       5.1713      0.00000
      7       5.1713      0.00000
      8       5.1713      0.00000
      9       5.3397      0.00000
     10       5.3397      0.00000

 k-point     7 :       0.0000    0.5000    0.5000
  band No.  band energies     occupation 
      1      -1.2200      2.00000
      2      -1.2200      2.00000
      3      -1.2200      2.00000
      4      -1.2200      2.00000
      5       5.1713      0.00000
      6       5.1713      0.00000
      7       5.1713      0.00000
      8       5.1713      0.00000
      9       5.3396      0.00000
     10       5.3397      0.00000

 k-point     8 :       0.5000    0.5000    0.5000
  band No.  band energies     occupation 
      1      -0.0387      2.00000
      2      -0.0387      2.00000
      3      -0.0387      2.00000
      4      -0.0387      2.00000
      5       0.9548      2.00000
      6       0.9548      2.00000
      7       0.9548      2.00000
      8       0.9548      2.00000
      9      11.2231      0.00000
     10      11.2231      0.00000


--------------------------------------------------------------------------------------------------------


 soft charge-density along one line, spin component           1
         0         1         2         3         4         5         6         7         8         9
 total charge-density along one line
 
 pseudopotential strength for first ion, spin component:           1
  9.185  15.496  -0.000  -0.000  -0.000  -0.000  -0.000  -0.000
 15.496  26.147  -0.000  -0.000  -0.000  -0.000  -0.000  -0.000
 -0.000  -0.000   2.106  -0.000  -0.000   6.029  -0.000  -0.000
 -0.000  -0.000  -0.000   2.106  -0.000  -0.000   6.029  -0.000
 -0.000  -0.000  -0.000  -0.000   2.106  -0.000  -0.000   6.029
 -0.000  -0.000   6.029  -0.000  -0.000  17.171  -0.000  -0.000
 -0.000  -0.000  -0.000   6.029  -0.000  -0.000  17.171  -0.000
 -0.000  -0.000  -0.000  -0.000   6.029  -0.000  -0.000  17.171
 total augmentation occupancy for first ion, spin component:           1
  2.869  -0.489  -0.000   0.000   0.000  -0.000   0.000  -0.000
 -0.489   0.170   0.000  -0.000  -0.000   0.000   0.000   0.000
 -0.000   0.000   0.672  -0.000  -0.000  -0.044   0.000   0.000
  0.000  -0.000  -0.000   0.672  -0.000   0.000  -0.044   0.000
  0.000  -0.000  -0.000  -0.000   0.672   0.000   0.000  -0.044
 -0.000   0.000  -0.044   0.000   0.000   0.003  -0.000  -0.000
  0.000   0.000   0.000  -0.044   0.000  -0.000   0.003  -0.000
 -0.000   0.000   0.000   0.000  -0.044  -0.000  -0.000   0.003


------------------------ aborting loop because EDIFF is reached ----------------------------------------


    CHARGE:  cpu time    0.0040: real time    0.0065
    FORLOC:  cpu time    0.0040: real time    0.0014
    FORNL :  cpu time    0.0200: real time    0.0226
    STRESS:  cpu time    0.0400: real time    0.0384
    FORCOR:  cpu time    0.0040: real time    0.0048
    FORHAR:  cpu time    0.0040: real time    0.0039
    MIXING:  cpu time    0.0000: real time    0.0007
    OFIELD:  cpu time    0.0000: real time    0.0000

  FORCE on cell =-STRESS in cart. coord.  units (eV):
  Direction    XX          YY          ZZ          XY          YZ          ZX
  --------------------------------------------------------------------------------------
  Alpha Z    -0.52172    -0.52172    -0.52172
  Ewald     -84.28221   -84.28221   -84.28221     0.00000    -0.00000    -0.00000
  Hartree     0.58661     0.58661     0.58661     0.00000     0.00000    -0.00000
  E(xc)     -33.21183   -33.21183   -33.21183    -0.00000    -0.00000     0.00000
  Local     -11.75450   -11.75453   -11.75453    -0.00000    -0.00001     0.00000
  n-local    81.89411    81.89412    81.89412     0.00000     0.00000    -0.00000
  augment    -6.40206    -6.40207    -6.40207    -0.00000    -0.00000     0.00000
  Kinetic    48.80580    48.80582    48.80583     0.00000     0.00000    -0.00000
  Fock        0.00000     0.00000     0.00000     0.00000     0.00000     0.00000
  -------------------------------------------------------------------------------------
  Total      -4.88581    -4.88580    -4.88580    -0.00000    -0.00000     0.00000
  in kB     -75.39694   -75.39674   -75.39673    -0.00001    -0.00003     0.00001
  external pressure =      -75.40 kB  Pullay stress =        0.00 kB


 VOLUME and BASIS-vectors are now :
 -----------------------------------------------------------------------------
  energy-cutoff  :      240.96
  volume of cell :      103.82
      direct lattice vectors                 reciprocal lattice vectors
     4.700000000  0.000000000  0.000000000     0.212765957  0.000000000  0.000000000
     0.000000000  4.700000000  0.000000000     0.000000000  0.212765957  0.000000000
     0.000000000  0.000000000  4.700000000     0.000000000  0.000000000  0.212765957

  length of vectors
     4.700000000  4.700000000  4.700000000     0.212765957  0.212765957  0.212765957


 FORCES acting on ions
    electron-ion (+dipol)            ewald-force                    non-local-force                 convergence-correction
 -----------------------------------------------------------------------------------------------
   -.153E-04 -.167E-05 -.527E-05   -.808E-15 -.720E-15 -.679E-15   0.731E-05 0.493E-05 0.784E-06   0.555E-05 -.147E-05 0.274E-05
   -.924E-05 -.910E-05 0.786E-05   -.787E-15 0.104E-14 0.212E-15   0.278E-05 0.292E-05 -.261E-05   0.415E-05 0.414E-05 -.343E-05
   0.725E-05 0.196E-04 0.992E-05   0.689E-15 -.105E-14 0.200E-15   -.144E-05 -.107E-04 -.403E-05   -.356E-05 -.663E-05 -.401E-05
   0.181E-04 -.810E-05 -.136E-04   0.710E-15 0.709E-15 0.100E-15   -.942E-05 0.217E-05 0.694E-05   -.617E-05 0.392E-05 0.478E-05
 -----------------------------------------------------------------------------------------------
   0.785E-06 0.734E-06 -.113E-05   -.196E-15 -.212E-16 -.167E-15   -.761E-06 -.702E-06 0.108E-05   -.449E-07 -.513E-07 0.758E-07
 
 
 POSITION                                       TOTAL-FORCE (eV/Angst)
 -----------------------------------------------------------------------------------
      0.00000      0.00000      0.00000        -0.000002      0.000002     -0.000002
      0.00000      2.35000      2.35000        -0.000002     -0.000002      0.000002
      2.35000      0.00000      2.35000         0.000002      0.000002      0.000002
      2.35000      2.35000      0.00000         0.000003     -0.000002     -0.000002
 -----------------------------------------------------------------------------------
    total drift:                               -0.000000     -0.000000      0.000000


--------------------------------------------------------------------------------------------------------



  FREE ENERGIE OF THE ION-ELECTRON SYSTEM (eV)
  ---------------------------------------------------
  free  energy   TOTEN  =       -12.77282094 eV

  energy  without entropy=      -12.73064581  energy(sigma->0) =      -12.75173338
 


--------------------------------------------------------------------------------------------------------


    POTLOK:  cpu time    0.0080: real time    0.0074


--------------------------------------------------------------------------------------------------------


 writing wavefunctions
     LOOP+:  cpu time   32.7820: real time   32.9083


--------------------------------------------------------------------------------------------------------



 plasma frequency squared (from intraband transitions) (eV^2)
  --------------------------------------------------------------------------------------
       0.000      -0.000      -0.000
      -0.000       0.000       0.000
      -0.000       0.000       0.000

 electrical conductivity sigma (Mega S m-1) (frequency dependency in vasprun.xml)
  --------------------------------------------------------------------------------------
       0.000      -0.000      -0.000
      -0.000       0.000       0.000
      -0.000       0.000       0.000

 plasma frequency squared (from interband transitions, int dw w eps(2)(w)) (eV^2)
  --------------------------------------------------------------------------------------
     180.824       0.000      -0.000       0.000       0.000      -0.000
      -0.000      -0.000     180.822       0.000       0.003      -0.000
       0.000       0.000       0.003       0.000     180.822       0.000
  --------------------------------------------------------------------------------------
 sumrule: sum of plasma frequencies squared should yield (valence only):     159.372

 Anomalous Hall contribution (eV) 2/pi Imag((f_n-f_m)<u_m| d/dk_a u_n> <u_m| d/dk_b u_n>^*) 
  --------------------------------------------------------------------------------------
       0.000       0.000      -0.000
      -0.000       0.000      -0.000
       0.000       0.000       0.000

  frequency dependent IMAGINARY DIELECTRIC FUNCTION (independent particle, no local field effects) density-density
     E(ev)      X         Y         Z        XY        YZ        ZX
  --------------------------------------------------------------------------------------------------------------
    0.000000    0.000000    0.000000    0.000000    0.000000    0.000000    0.000000
    0.009433    0.444458    0.444456    0.444456   -0.000000    0.000000    0.000000
    0.018866    0.889599    0.889594    0.889594   -0.000000    0.000001    0.000000
    0.028298    1.336108    1.336101    1.336101   -0.000000    0.000001    0.000000
    0.037731    1.784677    1.784668    1.784668   -0.000000    0.000001    0.000000
    0.047164    2.236005    2.235995    2.235995   -0.000000    0.000002    0.000000
    0.056597    2.690805    2.690792    2.690792   -0.000000    0.000002    0.000000
    0.066030    3.149802    3.149787    3.149787   -0.000001    0.000002    0.000000
    0.075462    3.613740    3.613723    3.613723   -0.000001    0.000002    0.000000
    0.084895    4.083384    4.083364    4.083364   -0.000001    0.000001    0.000000
    0.094328    4.559523    4.559501    4.559501   -0.000001    0.000001    0.000000
    0.103761    5.042974    5.042950    5.042950   -0.000001    0.000001    0.000000
    0.113194    5.534589    5.534563    5.534562   -0.000001    0.000001    0.000001
    0.122626    6.035253    6.035224    6.035224   -0.000001    0.000000    0.000001
    0.132059    6.545893    6.545862    6.545861   -0.000001    0.000000    0.000001
    0.141492    7.067483    7.067449    7.067449   -0.000001   -0.000000    0.000001
    0.150925    7.601048    7.601011    7.601011   -0.000001   -0.000001    0.000001
    0.160358    8.147668    8.147629    8.147629   -0.000001   -0.000001    0.000001
    0.169790    8.708489    8.708447    8.708447   -0.000001   -0.000001    0.000001
    0.179223    9.284726    9.284682    9.284681   -0.000001   -0.000002    0.000001
    0.188656    9.877672    9.877625    9.877624   -0.000001   -0.000002    0.000001
    0.198089   10.488707   10.488657   10.488656   -0.000001   -0.000002    0.000001
    0.207522   11.119306   11.119253   11.119252   -0.000001   -0.000003    0.000001
    0.216954   11.771051   11.770994   11.770994   -0.000001   -0.000003    0.000001
    0.226387   12.445641   12.445581   12.445580   -0.000001   -0.000004    0.000002
    0.235820   13.144906   13.144843   13.144842   -0.000001   -0.000004    0.000002
    0.245253   13.870821   13.870754   13.870753   -0.000002   -0.000005    0.000002
    0.254686   14.625522   14.625451   14.625450   -0.000002   -0.000005    0.000002
    0.264118   15.411323   15.411248   15.411247   -0.000002   -0.000005    0.000002
    0.273551   16.230740   16.230661   16.230660   -0.000002   -0.000006    0.000002
    0.282984   17.086509   17.086425   17.086424   -0.000002   -0.000006    0.000002
    0.292417   17.981615   17.981528   17.981526   -0.000002   -0.000007    0.000002
    0.301850   18.919322   18.919230   18.919229   -0.000002   -0.000007    0.000003
    0.311282   19.903204   19.903107   19.903106   -0.000002   -0.000008    0.000003
    0.320715   20.937184   20.937082   20.937081   -0.000002   -0.000009    0.000003
    0.330148   22.025576   22.025469   22.025467   -0.000002   -0.000009    0.000003
    0.339581   23.173137   23.173024   23.173022   -0.000002   -0.000010    0.000003
    0.349014   24.385119   24.385000   24.384999   -0.000002   -0.000010    0.000003
    0.358446   25.667338   25.667212   25.667211   -0.000003   -0.000011    0.000003
    0.367879   27.026242   27.026110   27.026108   -0.000003   -0.000012    0.000004
    0.377312   28.469001   28.468861   28.468860   -0.000003   -0.000013    0.000004
    0.386745   30.003599   30.003452   30.003450   -0.000003   -0.000013    0.000004
    0.396178   31.638947   31.638792   31.638790   -0.000003   -0.000014    0.000004
    0.405610   33.385011   33.384847   33.384845   -0.000003   -0.000015    0.000005
    0.415043   35.252953   35.252780   35.252778   -0.000003   -0.000016    0.000005
    0.424476   37.255300   37.255118   37.255116   -0.000004   -0.000017    0.000005
    0.433909   39.406132   39.405939   39.405937   -0.000004   -0.000018    0.000005
    0.443342   41.721290   41.721086   41.721083   -0.000004   -0.000019    0.000006
    0.452774   44.218613   44.218398   44.218395   -0.000004   -0.000020    0.000006
    0.462207   46.918205   46.917977   46.917974   -0.000004   -0.000022    0.000006
    0.471640   49.842713   49.842471   49.842468   -0.000005   -0.000023    0.000007
    0.481073   53.017635   53.017379   53.017376   -0.000005   -0.000025    0.000007
    0.490506   56.471645   56.471373   56.471370   -0.000005   -0.000026    0.000008
    0.499938   60.236917   60.236628   60.236625   -0.000006   -0.000028    0.000008
    0.509371   64.349457   64.349149   64.349145   -0.000006   -0.000030    0.000009
    0.518804   68.849414   68.849085   68.849082   -0.000006   -0.000032    0.000009
    0.528237   73.781358   73.781007   73.781004   -0.000007   -0.000034    0.000010
    0.537670   79.194479   79.194104   79.194100   -0.000007   -0.000037    0.000010
    0.547102   85.142638   85.142237   85.142233   -0.000008   -0.000040    0.000011
    0.556535   91.684169   91.683739   91.683734   -0.000008   -0.000043    0.000012
    0.565968   98.881291   98.880828   98.880823   -0.000009   -0.000046    0.000013
    0.575401  106.798954  106.798456  106.798450   -0.000009   -0.000050    0.000014
    0.584834  115.502953  115.502414  115.502409   -0.000010   -0.000054    0.000015
    0.594266  125.057079  125.056494  125.056488   -0.000011   -0.000058    0.000016
    0.603699  135.519113  135.518477  135.518471   -0.000012   -0.000063    0.000018
    0.613132  146.935453  146.934759  146.934752   -0.000013   -0.000069    0.000019
    0.622565  159.334194  159.333434  159.333426   -0.000014   -0.000076    0.000021
    0.631998  172.716633  172.715796  172.715788   -0.000015   -0.000083    0.000023
    0.641430  187.047344  187.046420  187.046411   -0.000017   -0.000091    0.000025
    0.650863  202.243312  202.242289  202.242278   -0.000019   -0.000100    0.000028
    0.660296  218.163040  218.161903  218.161891   -0.000020   -0.000111    0.000031
    0.669729  234.597046  234.595780  234.595767   -0.000022   -0.000122    0.000034
    0.679162  251.261685  251.260275  251.260260   -0.000025   -0.000135    0.000037
    0.688594  267.798582  267.797013  267.796995   -0.000027   -0.000149    0.000041
    0.698027  283.781973  283.780230  283.780210   -0.000030   -0.000163    0.000045
    0.707460  298.735738  298.733810  298.733787   -0.000033   -0.000178    0.000049
    0.716893  312.160697  312.158576  312.158551   -0.000036   -0.000194    0.000053
    0.726326  323.570927  323.568612  323.568585   -0.000038   -0.000209    0.000058
    0.735758  332.535679  332.533177  332.533147   -0.000041   -0.000224    0.000061
    0.745191  338.721516  338.718842  338.718809   -0.000043   -0.000237    0.000065
    0.754624  341.928207  341.925383  341.925348   -0.000045   -0.000248    0.000068
    0.764057  342.112216  342.109272  342.109235   -0.000047   -0.000256    0.000070
    0.773490  339.393508  339.390480  339.390442   -0.000048   -0.000261    0.000072
    0.782922  334.044425  334.041352  334.041312   -0.000048   -0.000263    0.000072
    0.792355  326.462777  326.459701  326.459661   -0.000048   -0.000262    0.000072
    0.801788  317.134114  317.131073  317.131034   -0.000047   -0.000257    0.000071
    0.811221  306.589549  306.586578  306.586539   -0.000046   -0.000250    0.000069
    0.820654  295.365443  295.362572  295.362534   -0.000044   -0.000240    0.000066
    0.830086  283.969850  283.967103  283.967067   -0.000042   -0.000228    0.000063
    0.839519  272.858522  272.855915  272.855880   -0.000040   -0.000216    0.000059
    0.848952  262.421167  262.418710  262.418677   -0.000038   -0.000202    0.000055
    0.858385  252.976975  252.974672  252.974641   -0.000035   -0.000188    0.000052
    0.867818  244.777404  244.775254  244.775224   -0.000032   -0.000174    0.000048
    0.877250  238.013840  238.011837  238.011809   -0.000030   -0.000160    0.000044
    0.886683  232.827860  232.825997  232.825971   -0.000028   -0.000147    0.000040
    0.896116  229.322186  229.320454  229.320429   -0.000025   -0.000135    0.000037
    0.905549  227.570880  227.569267  227.569243   -0.000023   -0.000123    0.000034
    0.914982  227.627765  227.626259  227.626237   -0.000021   -0.000112    0.000031
    0.924414  229.532435  229.531025  229.531003   -0.000020   -0.000102    0.000028
    0.933847  233.313471  233.312146  233.312125   -0.000018   -0.000093    0.000025
    0.943280  238.988659  238.987409  238.987389   -0.000016   -0.000084    0.000023
    0.952713  246.562110  246.560926  246.560906   -0.000015   -0.000077    0.000021
    0.962146  256.018251  256.017128  256.017109   -0.000014   -0.000070    0.000019
    0.971578  267.312787  267.311720  267.311702   -0.000013   -0.000065    0.000017
    0.981011  280.360897  280.359887  280.359868   -0.000012   -0.000060    0.000016
    0.990444  295.023317  295.022366  295.022347   -0.000012   -0.000057    0.000015
    0.999877  311.091403  311.090518  311.090500   -0.000012   -0.000054    0.000014
    1.009310  328.272928  328.272120  328.272103   -0.000012   -0.000054    0.000014
    1.018742  346.181018  346.180303  346.180287   -0.000012   -0.000055    0.000014
    1.028175  364.329227  364.328626  364.328610   -0.000013   -0.000058    0.000015
    1.037608  382.135996  382.135532  382.135517   -0.000014   -0.000063    0.000016
    1.047041  398.941366  398.941064  398.941051   -0.000015   -0.000070    0.000018
    1.056474  414.037587  414.037472  414.037461   -0.000017   -0.000079    0.000021
    1.065906  426.713137  426.713231  426.713222   -0.000019   -0.000090    0.000024
    1.075339  436.306810  436.307130  436.307124   -0.000021   -0.000102    0.000027
    1.084772  442.265636  442.266192  442.266189   -0.000023   -0.000114    0.000030
    1.094205  444.198272  444.199063  444.199064   -0.000026   -0.000127    0.000034
    1.103638  441.914985  441.916001  441.916005   -0.000028   -0.000139    0.000037
    1.113070  435.447024  435.448244  435.448250   -0.000030   -0.000149    0.000040
    1.122503  425.041670  425.043063  425.043072   -0.000031   -0.000157    0.000042
    1.131936  411.133893  411.135423  411.135435   -0.000032   -0.000163    0.000044
    1.141369  394.299831  394.301458  394.301471   -0.000033   -0.000167    0.000045
    1.150802  375.200201  375.201884  375.201899   -0.000033   -0.000167    0.000045
    1.160234  354.522561  354.524262  354.524278   -0.000033   -0.000165    0.000044
    1.169667  332.930111  332.931795  332.931811   -0.000032   -0.000161    0.000043
    1.179100  311.022208  311.023847  311.023863   -0.000030   -0.000156    0.000042
    1.188533  289.308792  289.310362  289.310378   -0.000029   -0.000149    0.000040
    1.197966  268.198298  268.199784  268.199799   -0.000027   -0.000140    0.000038
    1.207398  247.996857  247.998249  247.998263   -0.000026   -0.000132    0.000035
    1.216831  228.915697  228.916988  228.917002   -0.000024   -0.000123    0.000033
    1.226264  211.083582  211.084771  211.084784   -0.000022   -0.000114    0.000031
    1.235697  194.561559  194.562648  194.562659   -0.000021   -0.000106    0.000028
    1.245130  179.357946  179.358939  179.358949   -0.000019   -0.000098    0.000026
    1.254562  165.442193  165.443094  165.443104   -0.000017   -0.000090    0.000024
    1.263995  152.756863  152.757679  152.757688   -0.000016   -0.000083    0.000022
    1.273428  141.227450  141.228188  141.228196   -0.000015   -0.000076    0.000020
    1.282861  130.770045  130.770711  130.770718   -0.000014   -0.000070    0.000019
    1.292294  121.297059  121.297660  121.297666   -0.000013   -0.000065    0.000017
    1.301726  112.721285  112.721828  112.721834   -0.000012   -0.000060    0.000016
    1.311159  104.958638  104.959128  104.959133   -0.000011   -0.000055    0.000015
    1.320592   97.929844   97.930287   97.930292   -0.000010   -0.000051    0.000014
    1.330025   91.561395   91.561795   91.561799   -0.000009   -0.000047    0.000013
    1.339458   85.785954   85.786317   85.786321   -0.000008   -0.000044    0.000012
    1.348890   80.542427   80.542755   80.542759   -0.000008   -0.000041    0.000011
    1.358323   75.775786   75.776084   75.776087   -0.000007   -0.000038    0.000010
    1.367756   71.436768   71.437040   71.437042   -0.000007   -0.000036    0.000010
    1.377189   67.481479   67.481727   67.481729   -0.000006   -0.000033    0.000009
    1.386622   63.870955   63.871181   63.871183   -0.000006   -0.000031    0.000008
    1.396054   60.570706   60.570912   60.570914   -0.000006   -0.000029    0.000008
    1.405487   57.550271   57.550460   57.550462   -0.000005   -0.000028    0.000008
    1.414920   54.782788   54.782961   54.782963   -0.000005   -0.000026    0.000007
    1.424353   52.244597   52.244757   52.244758   -0.000005   -0.000025    0.000007
    1.433786   49.914878   49.915025   49.915026   -0.000005   -0.000023    0.000006
    1.443218   47.775325   47.775460   47.775461   -0.000004   -0.000022    0.000006
    1.452651   45.809862   45.809987   45.809988   -0.000004   -0.000021    0.000006
    1.462084   44.004390   44.004506   44.004507   -0.000004   -0.000020    0.000006
    1.471517   42.346573   42.346680   42.346681   -0.000004   -0.000019    0.000005
    1.480950   40.825649   40.825748   40.825749   -0.000004   -0.000018    0.000005
    1.490383   39.432271   39.432364   39.432365   -0.000003   -0.000018    0.000005
    1.499815   38.158379   38.158465   38.158466   -0.000003   -0.000017    0.000005
    1.509248   36.997081   36.997162   36.997163   -0.000003   -0.000016    0.000005
    1.518681   35.942573   35.942648   35.942649   -0.000003   -0.000016    0.000004
    1.528114   34.990058   34.990128   34.990129   -0.000003   -0.000015    0.000004
    1.537547   34.135697   34.135762   34.135763   -0.000003   -0.000015    0.000004
    1.546979   33.376568   33.376630   33.376631   -0.000003   -0.000014    0.000004
    1.556412   32.710642   32.710701   32.710701   -0.000003   -0.000014    0.000004
    1.565845   32.136767   32.136821   32.136822   -0.000003   -0.000013    0.000004
    1.575278   31.654665   31.654717   31.654718   -0.000003   -0.000013    0.000004
    1.584711   31.264944   31.264993   31.264994   -0.000003   -0.000013    0.000004
    1.594143   30.969106   30.969153   30.969153   -0.000002   -0.000012    0.000004
    1.603576   30.769571   30.769616   30.769617   -0.000002   -0.000012    0.000003
    1.613009   30.669697   30.669740   30.669741   -0.000002   -0.000012    0.000003
    1.622442   30.673801   30.673842   30.673843   -0.000002   -0.000012    0.000003
    1.631875   30.787171   30.787211   30.787212   -0.000002   -0.000012    0.000003
    1.641307   31.016065   31.016103   31.016104   -0.000002   -0.000012    0.000003
    1.650740   31.367664   31.367702   31.367703   -0.000002   -0.000012    0.000003
    1.660173   31.849983   31.850020   31.850021   -0.000002   -0.000012    0.000003
    1.669606   32.471683   32.471720   32.471721   -0.000002   -0.000012    0.000003
    1.679039   33.241784   33.241820   33.241821   -0.000002   -0.000012    0.000003
    1.688471   34.169221   34.169257   34.169259   -0.000002   -0.000012    0.000003
    1.697904   35.262228   35.262264   35.262266   -0.000002   -0.000012    0.000003
    1.707337   36.527495   36.527531   36.527533   -0.000002   -0.000012    0.000004
    1.716770   37.969080   37.969117   37.969119   -0.000003   -0.000012    0.000004
    1.726203   39.587054   39.587091   39.587093   -0.000003   -0.000013    0.000004
    1.735635   41.375893   41.375931   41.375933   -0.000003   -0.000013    0.000004
    1.745068   43.322683   43.322721   43.322724   -0.000003   -0.000014    0.000004
    1.754501   45.405260   45.405299   45.405301   -0.000003   -0.000014    0.000004
    1.763934   47.590504   47.590542   47.590544   -0.000003   -0.000015    0.000004
    1.773367   49.833076   49.833114   49.833117   -0.000003   -0.000015    0.000004
    1.782799   52.074984   52.075020   52.075023   -0.000003   -0.000016    0.000004
    1.792232   54.246339   54.246374   54.246377   -0.000003   -0.000016    0.000005
    1.801665   56.267680   56.267712   56.267716   -0.000003   -0.000017    0.000005
    1.811098   58.053996   58.054025   58.054028   -0.000003   -0.000017    0.000005
    1.820531   59.520365   59.520390   59.520394   -0.000004   -0.000017    0.000005
    1.829963   60.588748   60.588769   60.588772   -0.000004   -0.000018    0.000005
    1.839396   61.195113   61.195128   61.195131   -0.000004   -0.000018    0.000005
    1.848829   61.295853   61.295863   61.295866   -0.000004   -0.000018    0.000005
    1.858262   60.872422   60.872426   60.872430   -0.000004   -0.000018    0.000005
    1.867695   59.933339   59.933338   59.933342   -0.000004   -0.000017    0.000005
    1.877127   58.513190   58.513185   58.513189   -0.000003   -0.000017    0.000005
    1.886560   56.668816   56.668807   56.668810   -0.000003   -0.000016    0.000005
    1.895993   54.473381   54.473368   54.473371   -0.000003   -0.000016    0.000004
    1.905426   52.009365   52.009350   52.009353   -0.000003   -0.000015    0.000004
    1.914859   49.361542   49.361526   49.361528   -0.000003   -0.000014    0.000004
    1.924291   46.610880   46.610862   46.610865   -0.000003   -0.000013    0.000004
    1.933724   43.829922   43.829904   43.829906   -0.000003   -0.000013    0.000004
    1.943157   41.079893   41.079876   41.079878   -0.000002   -0.000012    0.000003
    1.952590   38.409434   38.409417   38.409419   -0.000002   -0.000011    0.000003
    1.962023   35.854665   35.854649   35.854650   -0.000002   -0.000010    0.000003
    1.971455   33.440206   33.440190   33.440192   -0.000002   -0.000010    0.000003
    1.980888   31.180766   31.180751   31.180753   -0.000002   -0.000009    0.000003
    1.990321   29.082972   29.082959   29.082960   -0.000002   -0.000008    0.000003
    1.999754   27.147201   27.147190   27.147191   -0.000002   -0.000008    0.000002
    2.009187   25.369256   25.369245   25.369246   -0.000002   -0.000007    0.000002
    2.018619   23.741801   23.741791   23.741792   -0.000001   -0.000007    0.000002
    2.028052   22.255534   22.255525   22.255526   -0.000001   -0.000006    0.000002
    2.037485   20.900094   20.900086   20.900087   -0.000001   -0.000006    0.000002
    2.046918   19.664737   19.664730   19.664731   -0.000001   -0.000006    0.000002
    2.056351   18.538807   18.538801   18.538801   -0.000001   -0.000005    0.000002
    2.065783   17.512058   17.512053   17.512053   -0.000001   -0.000005    0.000002
    2.075216   16.574849   16.574844   16.574844   -0.000001   -0.000005    0.000002
    2.084649   15.718245   15.718240   15.718241   -0.000001   -0.000004    0.000002
    2.094082   14.934068   14.934064   14.934065   -0.000001   -0.000004    0.000001
    2.103515   14.214896   14.214893   14.214893   -0.000001   -0.000004    0.000001
    2.112947   13.554040   13.554037   13.554037   -0.000001   -0.000004    0.000001
    2.122380   12.945504   12.945501   12.945502   -0.000001   -0.000004    0.000001
    2.131813   12.383937   12.383934   12.383934   -0.000001   -0.000003    0.000001
    2.141246   11.864575   11.864572   11.864573   -0.000001   -0.000003    0.000001
    2.150679   11.383191   11.383188   11.383189   -0.000001   -0.000003    0.000001
    2.160111   10.936034   10.936032   10.936032   -0.000001   -0.000003    0.000001
    2.169544   10.519780   10.519778   10.519779   -0.000001   -0.000003    0.000001
    2.178977   10.131484   10.131482   10.131482   -0.000001   -0.000003    0.000001
    2.188410    9.768531    9.768529    9.768529   -0.000001   -0.000003    0.000001
    2.197843    9.428601    9.428599    9.428600   -0.000001   -0.000002    0.000001
    2.207275    9.109631    9.109629    9.109630   -0.000001   -0.000002    0.000001
    2.216708    8.809783    8.809782    8.809782   -0.000001   -0.000002    0.000001
    2.226141    8.527419    8.527418    8.527418   -0.000001   -0.000002    0.000001
    2.235574    8.261074    8.261072    8.261072   -0.000001   -0.000002    0.000001
    2.245007    8.009435    8.009434    8.009434   -0.000001   -0.000002    0.000001
    2.254439    7.771326    7.771325    7.771325   -0.000001   -0.000002    0.000001
    2.263872    7.545689    7.545688    7.545688   -0.000001   -0.000002    0.000001
    2.273305    7.331570    7.331569    7.331569   -0.000000   -0.000002    0.000001
    2.282738    7.128109    7.128108    7.128108   -0.000000   -0.000002    0.000001
    2.292171    6.934527    6.934525    6.934526   -0.000000   -0.000002    0.000001
    2.301603    6.750118    6.750116    6.750116   -0.000000   -0.000001    0.000001
    2.311036    6.574241    6.574240    6.574240   -0.000000   -0.000001    0.000001
    2.320469    6.406313    6.406312    6.406312   -0.000000   -0.000001    0.000001
    2.329902    6.245804    6.245803    6.245803   -0.000000   -0.000001    0.000001
    2.339335    6.092227    6.092226    6.092226   -0.000000   -0.000001    0.000001
    2.348767    5.945139    5.945138    5.945138   -0.000000   -0.000001    0.000001
    2.358200    5.804132    5.804131    5.804131   -0.000000   -0.000001    0.000001
    2.367633    5.668834    5.668833    5.668833   -0.000000   -0.000001    0.000001
    2.377066    5.538900    5.538899    5.538899   -0.000000   -0.000001    0.000001
    2.386499    5.414015    5.414014    5.414014   -0.000000   -0.000001    0.000001
    2.395931    5.293887    5.293886    5.293886   -0.000000   -0.000001    0.000001
    2.405364    5.178246    5.178245    5.178245   -0.000000   -0.000001    0.000001
    2.414797    5.066843    5.066842    5.066842   -0.000000   -0.000001    0.000001
    2.424230    4.959447    4.959446    4.959446   -0.000000   -0.000001    0.000001
    2.433663    4.855844    4.855843    4.855843   -0.000000   -0.000001    0.000001
    2.443095    4.755835    4.755834    4.755834   -0.000000   -0.000001    0.000001
    2.452528    4.659234    4.659233    4.659233   -0.000000   -0.000001    0.000001
    2.461961    4.565870    4.565869    4.565869   -0.000000   -0.000001    0.000001
    2.471394    4.475581    4.475580    4.475580   -0.000000   -0.000001    0.000001
    2.480827    4.388218    4.388217    4.388217   -0.000000   -0.000000    0.000001
    2.490259    4.303640    4.303638    4.303639   -0.000000   -0.000000    0.000001
    2.499692    4.221715    4.221714    4.221714   -0.000000   -0.000000    0.000001
    2.509125    4.142321    4.142320    4.142320   -0.000000   -0.000000    0.000001
    2.518558    4.065342    4.065341    4.065341   -0.000000   -0.000000    0.000001
    2.527991    3.990670    3.990669    3.990669   -0.000000   -0.000000    0.000001
    2.537423    3.918203    3.918202    3.918202   -0.000000   -0.000000    0.000001
    2.546856    3.847846    3.847845    3.847845   -0.000000   -0.000000    0.000001
    2.556289    3.779507    3.779506    3.779506   -0.000000   -0.000000    0.000001
    2.565722    3.713103    3.713102    3.713102   -0.000000   -0.000000    0.000000
    2.575155    3.648553    3.648551    3.648552   -0.000000   -0.000000    0.000000
    2.584587    3.585780    3.585779    3.585779   -0.000000   -0.000000    0.000000
    2.594020    3.524715    3.524714    3.524714   -0.000000   -0.000000    0.000000
    2.603453    3.465288    3.465287    3.465287   -0.000000   -0.000000    0.000000
    2.612886    3.407436    3.407435    3.407435   -0.000000    0.000000    0.000000
    2.622319    3.351099    3.351098    3.351098   -0.000000    0.000000    0.000000
    2.631751    3.296218    3.296217    3.296217   -0.000000    0.000000    0.000000
    2.641184    3.242739    3.242738    3.242738   -0.000000    0.000000    0.000000
    2.650617    3.190610    3.190609    3.190609   -0.000000    0.000000    0.000000
    2.660050    3.139781    3.139780    3.139780   -0.000000    0.000000    0.000000
    2.669483    3.090207    3.090206    3.090206   -0.000000    0.000000    0.000000
    2.678915    3.041842    3.041841    3.041841   -0.000000    0.000000    0.000000
    2.688348    2.994644    2.994643    2.994643   -0.000000    0.000000    0.000000
    2.697781    2.948573    2.948572    2.948572   -0.000000    0.000000    0.000000
    2.707214    2.903589    2.903588    2.903588   -0.000000    0.000000    0.000000
    2.716647    2.859657    2.859656    2.859656   -0.000000    0.000000    0.000000
    2.726079    2.816740    2.816739    2.816739   -0.000000    0.000000    0.000000
    2.735512    2.774806    2.774805    2.774805   -0.000000    0.000000    0.000000
    2.744945    2.733822    2.733821    2.733821   -0.000000    0.000000    0.000000
    2.754378    2.693758    2.693757    2.693757   -0.000000    0.000000    0.000000
    2.763811    2.654584    2.654583    2.654583   -0.000000    0.000000    0.000000
    2.773243    2.616272    2.616271    2.616271   -0.000000    0.000001    0.000000
    2.782676    2.578795    2.578794    2.578794   -0.000000    0.000001    0.000000
    2.792109    2.542128    2.542127    2.542127   -0.000000    0.000001    0.000000
    2.801542    2.506246    2.506245    2.506245   -0.000000    0.000001    0.000000
    2.810975    2.471125    2.471124    2.471124   -0.000000    0.000001    0.000000
    2.820407    2.436743    2.436742    2.436742   -0.000000    0.000001    0.000000
    2.829840    2.403076    2.403076    2.403076   -0.000000    0.000001    0.000000
    2.839273    2.370106    2.370105    2.370105   -0.000000    0.000001    0.000000
    2.848706    2.337811    2.337810    2.337810   -0.000000    0.000001    0.000000
    2.858139    2.306171    2.306170    2.306170   -0.000000    0.000001    0.000000
    2.867571    2.275169    2.275168    2.275168   -0.000000    0.000001    0.000000
    2.877004    2.244787    2.244786    2.244786   -0.000000    0.000001    0.000000
    2.886437    2.215006    2.215005    2.215005   -0.000000    0.000001    0.000000
    2.895870    2.185811    2.185810    2.185810   -0.000000    0.000001    0.000000
    2.905303    2.157185    2.157185    2.157185   -0.000000    0.000001    0.000000
    2.914735    2.129114    2.129113    2.129113   -0.000000    0.000001    0.000000
    2.924168    2.101581    2.101580    2.101580   -0.000000    0.000001    0.000000
    2.933601    2.074574    2.074573    2.074573   -0.000000    0.000001    0.000000
    2.943034    2.048077    2.048076    2.048076   -0.000000    0.000001    0.000000
    2.952467    2.022077    2.022077    2.022077   -0.000000    0.000001    0.000000
    2.961899    1.996563    1.996562    1.996562   -0.000000    0.000001    0.000000
    2.971332    1.971520    1.971519    1.971519   -0.000000    0.000001    0.000000
    2.980765    1.946938    1.946937    1.946937   -0.000000    0.000001    0.000000
    2.990198    1.922804    1.922803    1.922803   -0.000000    0.000001    0.000000
    2.999631    1.899107    1.899106    1.899106   -0.000000    0.000001    0.000000
    3.009063    1.875837    1.875836    1.875836   -0.000000    0.000001    0.000000
    3.018496    1.852982    1.852981    1.852981   -0.000000    0.000001    0.000000
    3.027929    1.830533    1.830532    1.830532   -0.000000    0.000001    0.000000
    3.037362    1.808480    1.808479    1.808479   -0.000000    0.000001    0.000000
    3.046795    1.786813    1.786812    1.786812   -0.000000    0.000001    0.000000
    3.056227    1.765523    1.765522    1.765522   -0.000000    0.000001    0.000000
    3.065660    1.744601    1.744600    1.744600   -0.000000    0.000001    0.000000
    3.075093    1.724038    1.724037    1.724037   -0.000000    0.000001    0.000000
    3.084526    1.703827    1.703826    1.703826   -0.000000    0.000001    0.000000
    3.093959    1.683958    1.683957    1.683957   -0.000000    0.000001    0.000000
    3.103391    1.664424    1.664423    1.664423   -0.000000    0.000001    0.000000
    3.112824    1.645217    1.645216    1.645216   -0.000000    0.000001    0.000000
    3.122257    1.626330    1.626329    1.626329   -0.000000    0.000001    0.000000
    3.131690    1.607756    1.607755    1.607755   -0.000000    0.000001    0.000000
    3.141123    1.589487    1.589486    1.589486   -0.000000    0.000001    0.000000
    3.150555    1.571517    1.571516    1.571516   -0.000000    0.000001    0.000000
    3.159988    1.553839    1.553838    1.553838    0.000000    0.000002    0.000000
    3.169421    1.536447    1.536446    1.536446    0.000000    0.000002    0.000000
    3.178854    1.519334    1.519333    1.519333    0.000000    0.000002    0.000000
    3.188287    1.502495    1.502494    1.502494    0.000000    0.000002    0.000000
    3.197719    1.485924    1.485923    1.485923    0.000000    0.000002    0.000000
    3.207152    1.469614    1.469613    1.469613    0.000000    0.000002    0.000000
    3.216585    1.453560    1.453560    1.453560    0.000000    0.000002    0.000000
    3.226018    1.437758    1.437757    1.437757    0.000000    0.000002    0.000000
    3.235451    1.422201    1.422200    1.422200    0.000000    0.000002    0.000000
    3.244883    1.406885    1.406884    1.406884    0.000000    0.000002    0.000000
    3.254316    1.391804    1.391803    1.391803    0.000000    0.000002    0.000000
    3.263749    1.376954    1.376953    1.376953    0.000000    0.000002    0.000000
    3.273182    1.362329    1.362328    1.362328    0.000000    0.000002    0.000000
    3.282615    1.347926    1.347926    1.347926    0.000000    0.000002    0.000000
    3.292047    1.333740    1.333740    1.333739    0.000000    0.000002    0.000000
    3.301480    1.319767    1.319766    1.319766    0.000000    0.000002    0.000000
    3.310913    1.306001    1.306001    1.306001    0.000000    0.000002    0.000000
    3.320346    1.292440    1.292440    1.292440    0.000000    0.000002    0.000000
    3.329779    1.279079    1.279079    1.279079    0.000000    0.000002    0.000000
    3.339211    1.265914    1.265914    1.265914    0.000000    0.000002    0.000000
    3.348644    1.252942    1.252941    1.252941    0.000000    0.000002    0.000000
    3.358077    1.240158    1.240157    1.240157    0.000000    0.000002    0.000000
    3.367510    1.227559    1.227558    1.227558    0.000000    0.000002    0.000000
    3.376943    1.215141    1.215141    1.215141    0.000000    0.000002    0.000000
    3.386375    1.202902    1.202901    1.202901    0.000000    0.000002    0.000000
    3.395808    1.190837    1.190836    1.190836    0.000000    0.000002    0.000000
    3.405241    1.178943    1.178942    1.178942    0.000000    0.000002    0.000000
    3.414674    1.167217    1.167216    1.167216    0.000000    0.000002    0.000000
    3.424107    1.155656    1.155656    1.155656    0.000000    0.000002    0.000000
    3.433539    1.144257    1.144257    1.144256    0.000000    0.000002    0.000000
    3.442972    1.133017    1.133016    1.133016    0.000000    0.000002    0.000000
    3.452405    1.121933    1.121932    1.121932    0.000000    0.000002    0.000000
    3.461838    1.111002    1.111001    1.111001    0.000000    0.000002    0.000000
    3.471271    1.100221    1.100220    1.100220    0.000000    0.000002    0.000000
    3.480703    1.089587    1.089587    1.089587    0.000000    0.000002    0.000000
    3.490136    1.079099    1.079098    1.079098    0.000000    0.000002    0.000000
    3.499569    1.068753    1.068752    1.068752    0.000000    0.000002    0.000000
    3.509002    1.058547    1.058546    1.058546    0.000000    0.000002    0.000000
    3.518435    1.048477    1.048477    1.048477    0.000000    0.000002    0.000000
    3.527867    1.038543    1.038543    1.038543    0.000000    0.000002    0.000000
    3.537300    1.028741    1.028741    1.028741    0.000000    0.000003    0.000000
    3.546733    1.019070    1.019069    1.019069    0.000000    0.000003    0.000000
    3.556166    1.009526    1.009526    1.009526    0.000000    0.000003    0.000000
    3.565599    1.000108    1.000108    1.000108    0.000000    0.000003    0.000000
    3.575031    0.990814    0.990813    0.990813    0.000000    0.000003    0.000000
    3.584464    0.981641    0.981640    0.981640    0.000000    0.000003    0.000000
    3.593897    0.972587    0.972586    0.972586    0.000000    0.000003    0.000000
    3.603330    0.963650    0.963650    0.963650    0.000000    0.000003    0.000000
    3.612763    0.954829    0.954829    0.954829    0.000000    0.000003    0.000000
    3.622195    0.946121    0.946121    0.946121    0.000000    0.000003    0.000000
    3.631628    0.937525    0.937524    0.937524    0.000000    0.000003    0.000000
    3.641061    0.929038    0.929038    0.929038    0.000000    0.000003    0.000000
    3.650494    0.920659    0.920659    0.920659    0.000000    0.000003    0.000000
    3.659927    0.912386    0.912386    0.912386    0.000000    0.000003    0.000000
    3.669359    0.904218    0.904217    0.904217    0.000000    0.000003    0.000000
    3.678792    0.896152    0.896151    0.896151    0.000000    0.000003    0.000000
    3.688225    0.888186    0.888186    0.888186    0.000000    0.000003    0.000000
    3.697658    0.880320    0.880320    0.880320    0.000000    0.000003    0.000000
    3.707091    0.872552    0.872551    0.872551    0.000000    0.000003    0.000000
    3.716523    0.864879    0.864879    0.864879    0.000000    0.000003    0.000000
    3.725956    0.857301    0.857301    0.857301    0.000000    0.000003    0.000000
    3.735389    0.849817    0.849816    0.849816    0.000000    0.000003    0.000000
    3.744822    0.842423    0.842423    0.842423    0.000000    0.000003    0.000000
    3.754255    0.835120    0.835119    0.835119    0.000000    0.000003    0.000000
    3.763687    0.827905    0.827905    0.827905    0.000000    0.000003    0.000000
    3.773120    0.820778    0.820777    0.820777    0.000000    0.000003    0.000000
    3.782553    0.813736    0.813736    0.813736    0.000000    0.000003    0.000000
    3.791986    0.806779    0.806779    0.806779    0.000000    0.000003    0.000000
    3.801419    0.799906    0.799905    0.799905    0.000000    0.000003    0.000000
    3.810851    0.793114    0.793114    0.793114    0.000000    0.000003    0.000000
    3.820284    0.786403    0.786403    0.786403    0.000000    0.000003    0.000000
    3.829717    0.779772    0.779771    0.779771    0.000000    0.000004    0.000000
    3.839150    0.773218    0.773218    0.773218    0.000000    0.000004    0.000000
    3.848583    0.766742    0.766742    0.766741    0.000000    0.000004    0.000000
    3.858015    0.760342    0.760341    0.760341    0.000000    0.000004    0.000000
    3.867448    0.754016    0.754016    0.754016    0.000000    0.000004    0.000000
    3.876881    0.747764    0.747764    0.747764    0.000000    0.000004    0.000000
    3.886314    0.741585    0.741584    0.741584    0.000000    0.000004    0.000000
    3.895747    0.735477    0.735477    0.735477    0.000000    0.000004    0.000000
    3.905179    0.729440    0.729439    0.729439    0.000000    0.000004    0.000000
    3.914612    0.723471    0.723471    0.723471    0.000000    0.000004    0.000000
    3.924045    0.717572    0.717571    0.717571    0.000000    0.000004    0.000000
    3.933478    0.711739    0.711739    0.711739    0.000000    0.000004    0.000000
    3.942911    0.705973    0.705973    0.705973    0.000000    0.000004    0.000000
    3.952343    0.700273    0.700272    0.700272    0.000000    0.000004    0.000000
    3.961776    0.694636    0.694636    0.694636    0.000000    0.000004    0.000000
    3.971209    0.689064    0.689063    0.689063    0.000000    0.000004    0.000000
    3.980642    0.683554    0.683553    0.683553    0.000000    0.000004    0.000000
    3.990075    0.678105    0.678105    0.678105    0.000000    0.000004    0.000000
    3.999507    0.672718    0.672717    0.672717    0.000000    0.000004    0.000000
    4.008940    0.667390    0.667390    0.667390    0.000000    0.000004    0.000000
    4.018373    0.662122    0.662121    0.662121    0.000000    0.000004    0.000000
    4.027806    0.656912    0.656911    0.656911    0.000000    0.000004    0.000000
    4.037239    0.651759    0.651759    0.651759    0.000000    0.000004    0.000000
    4.046671    0.646663    0.646663    0.646663    0.000000    0.000005    0.000000
    4.056104    0.641623    0.641623    0.641623    0.000000    0.000005    0.000000
    4.065537    0.636638    0.636638    0.636638    0.000000    0.000005    0.000000
    4.074970    0.631708    0.631707    0.631707    0.000000    0.000005    0.000000
    4.084403    0.626831    0.626831    0.626831    0.000000    0.000005    0.000000
    4.093835    0.622007    0.622007    0.622007    0.000001    0.000005    0.000000
    4.103268    0.617235    0.617235    0.617235    0.000001    0.000005    0.000000
    4.112701    0.612515    0.612514    0.612514    0.000001    0.000005    0.000000
    4.122134    0.607845    0.607845    0.607845    0.000001    0.000005    0.000000
    4.131567    0.603226    0.603225    0.603225    0.000001    0.000005    0.000000
    4.140999    0.598656    0.598655    0.598655    0.000001    0.000005    0.000000
    4.150432    0.594134    0.594134    0.594134    0.000001    0.000005    0.000000
    4.159865    0.589661    0.589661    0.589661    0.000001    0.000005    0.000000
    4.169298    0.585235    0.585235    0.585235    0.000001    0.000005    0.000000
    4.178731    0.580856    0.580856    0.580856    0.000001    0.000005    0.000000
    4.188163    0.576524    0.576523    0.576523    0.000001    0.000005    0.000000
    4.197596    0.572237    0.572236    0.572236    0.000001    0.000005    0.000000
    4.207029    0.567995    0.567994    0.567994    0.000001    0.000005    0.000000
    4.216462    0.563797    0.563797    0.563797    0.000001    0.000006    0.000000
    4.225895    0.559643    0.559643    0.559643    0.000001    0.000006    0.000000
    4.235327    0.555533    0.555533    0.555533    0.000001    0.000006    0.000000
    4.244760    0.551465    0.551465    0.551465    0.000001    0.000006    0.000000
    4.254193    0.547440    0.547440    0.547440    0.000001    0.000006    0.000000
    4.263626    0.543456    0.543456    0.543456    0.000001    0.000006    0.000000
    4.273059    0.539514    0.539513    0.539513    0.000001    0.000006    0.000000
    4.282491    0.535612    0.535611    0.535611    0.000001    0.000006    0.000000
    4.291924    0.531750    0.531750    0.531750    0.000001    0.000006    0.000000
    4.301357    0.527928    0.527928    0.527928    0.000001    0.000006    0.000000
    4.310790    0.524145    0.524145    0.524145    0.000001    0.000006    0.000000
    4.320223    0.520401    0.520400    0.520400    0.000001    0.000006    0.000000
    4.329655    0.516695    0.516694    0.516694    0.000001    0.000006    0.000000
    4.339088    0.513026    0.513026    0.513026    0.000001    0.000006    0.000000
    4.348521    0.509395    0.509395    0.509395    0.000001    0.000007    0.000000
    4.357954    0.505801    0.505801    0.505801    0.000001    0.000007    0.000000
    4.367387    0.502243    0.502243    0.502243    0.000001    0.000007    0.000000
    4.376820    0.498721    0.498721    0.498721    0.000001    0.000007    0.000000
    4.386252    0.495235    0.495234    0.495234    0.000001    0.000007    0.000000
    4.395685    0.491784    0.491783    0.491783    0.000001    0.000007    0.000000
    4.405118    0.488367    0.488367    0.488367    0.000001    0.000007    0.000000
    4.414551    0.484985    0.484984    0.484984    0.000001    0.000007    0.000000
    4.423984    0.481636    0.481636    0.481636    0.000001    0.000007    0.000000
    4.433416    0.478321    0.478321    0.478321    0.000001    0.000007    0.000000
    4.442849    0.475040    0.475039    0.475039    0.000001    0.000007    0.000000
    4.452282    0.471790    0.471790    0.471790    0.000001    0.000008    0.000000
    4.461715    0.468574    0.468573    0.468573    0.000001    0.000008    0.000000
    4.471148    0.465389    0.465389    0.465389    0.000001    0.000008    0.000000
    4.480580    0.462236    0.462236    0.462236    0.000001    0.000008    0.000000
    4.490013    0.459114    0.459114    0.459114    0.000001    0.000008    0.000000
    4.499446    0.456024    0.456023    0.456023    0.000001    0.000008    0.000000
    4.508879    0.452964    0.452963    0.452963    0.000001    0.000008    0.000000
    4.518312    0.449934    0.449933    0.449933    0.000001    0.000008    0.000000
    4.527744    0.446934    0.446934    0.446934    0.000001    0.000008    0.000000
    4.537177    0.443964    0.443963    0.443963    0.000001    0.000009    0.000000
    4.546610    0.441023    0.441023    0.441023    0.000001    0.000009    0.000000
    4.556043    0.438111    0.438111    0.438111    0.000001    0.000009    0.000000
    4.565476    0.435228    0.435228    0.435228    0.000001    0.000009    0.000000
    4.574908    0.432374    0.432373    0.432373    0.000001    0.000009    0.000000
    4.584341    0.429547    0.429547    0.429547    0.000001    0.000009    0.000000
    4.593774    0.426749    0.426748    0.426748    0.000002    0.000009    0.000000
    4.603207    0.423978    0.423977    0.423977    0.000002    0.000009    0.000000
    4.612640    0.421234    0.421234    0.421234    0.000002    0.000010    0.000000
    4.622072    0.418517    0.418517    0.418517    0.000002    0.000010    0.000000
    4.631505    0.415828    0.415827    0.415827    0.000002    0.000010    0.000000
    4.640938    0.413165    0.413164    0.413164    0.000002    0.000010    0.000000
    4.650371    0.410528    0.410527    0.410527    0.000002    0.000010    0.000000
    4.659804    0.407917    0.407917    0.407917    0.000002    0.000010    0.000000
    4.669236    0.405332    0.405332    0.405332    0.000002    0.000010    0.000000
    4.678669    0.402773    0.402772    0.402772    0.000002    0.000011    0.000000
    4.688102    0.400239    0.400239    0.400239    0.000002    0.000011    0.000000
    4.697535    0.397730    0.397730    0.397730    0.000002    0.000011    0.000000
    4.706968    0.395247    0.395246    0.395246    0.000002    0.000011    0.000000
    4.716400    0.392788    0.392787    0.392787    0.000002    0.000011    0.000000
    4.725833    0.390353    0.390353    0.390353    0.000002    0.000012    0.000000
    4.735266    0.387944    0.387943    0.387943    0.000002    0.000012    0.000000
    4.744699    0.385558    0.385557    0.385557    0.000002    0.000012    0.000000
    4.754132    0.383196    0.383196    0.383196    0.000002    0.000012    0.000000
    4.763564    0.380858    0.380858    0.380858    0.000002    0.000012    0.000000
    4.772997    0.378544    0.378544    0.378544    0.000002    0.000013    0.000000
    4.782430    0.376254    0.376253    0.376253    0.000002    0.000013    0.000000
    4.791863    0.373987    0.373986    0.373986    0.000003    0.000013    0.000000
    4.801296    0.371743    0.371743    0.371743    0.000003    0.000013    0.000000
    4.810728    0.369522    0.369522    0.369522    0.000003    0.000013    0.000000
    4.820161    0.367324    0.367324    0.367324    0.000003    0.000014    0.000000
    4.829594    0.365150    0.365149    0.365149    0.000003    0.000014    0.000000
    4.839027    0.362998    0.362997    0.362997    0.000003    0.000014   -0.000000
    4.848460    0.360868    0.360868    0.360868    0.000003    0.000014   -0.000000
    4.857892    0.358762    0.358761    0.358761    0.000003    0.000015   -0.000000
    4.867325    0.356677    0.356677    0.356677    0.000003    0.000015   -0.000000
    4.876758    0.354616    0.354615    0.354615    0.000003    0.000015   -0.000000
    4.886191    0.352576    0.352576    0.352576    0.000003    0.000015   -0.000000
    4.895624    0.350559    0.350559    0.350559    0.000003    0.000016   -0.000000
    4.905056    0.348564    0.348564    0.348564    0.000004    0.000016   -0.000000
    4.914489    0.346592    0.346592    0.346592    0.000004    0.000016   -0.000000
    4.923922    0.344642    0.344641    0.344641    0.000004    0.000017   -0.000000
    4.933355    0.342714    0.342713    0.342713    0.000004    0.000017   -0.000000
    4.942788    0.340808    0.340807    0.340807    0.000004    0.000017   -0.000000
    4.952220    0.338924    0.338924    0.338924    0.000004    0.000018   -0.000000
    4.961653    0.337063    0.337062    0.337062    0.000004    0.000018   -0.000000
    4.971086    0.335224    0.335223    0.335223    0.000004    0.000019   -0.000000
    4.980519    0.333407    0.333407    0.333407    0.000004    0.000019   -0.000000
    4.989952    0.331613    0.331613    0.331613    0.000005    0.000019   -0.000000
    4.999384    0.329841    0.329841    0.329841    0.000005    0.000020   -0.000000
[...]
   16.790385    0.360079    0.360086    0.360086    0.000001   -0.000011   -0.000002
   16.799818    0.360802    0.360809    0.360809    0.000001   -0.000011   -0.000002
   16.809251    0.361523    0.361530    0.361531    0.000001   -0.000011   -0.000002
   16.818684    0.362244    0.362251    0.362251    0.000001   -0.000011   -0.000002
   16.828116    0.362963    0.362970    0.362970    0.000001   -0.000011   -0.000002
   16.837549    0.363681    0.363688    0.363688    0.000001   -0.000011   -0.000002
   16.846982    0.364397    0.364404    0.364404    0.000001   -0.000011   -0.000002
   16.856415    0.365113    0.365120    0.365120    0.000001   -0.000011   -0.000002
   16.865848    0.365827    0.365834    0.365834    0.000001   -0.000011   -0.000002
   16.875280    0.366540    0.366547    0.366547    0.000001   -0.000011   -0.000002
   16.884713    0.367252    0.367259    0.367259    0.000001   -0.000011   -0.000002
   16.894146    0.367962    0.367969    0.367969    0.000001   -0.000011   -0.000002
   16.903579    0.368672    0.368679    0.368679    0.000001   -0.000011   -0.000002
   16.913012    0.369380    0.369387    0.369387    0.000001   -0.000011   -0.000002
   16.922444    0.370087    0.370094    0.370094    0.000001   -0.000011   -0.000001
   16.931877    0.370793    0.370800    0.370800    0.000001   -0.000011   -0.000001
   16.941310    0.371498    0.371504    0.371505    0.000001   -0.000011   -0.000001
   16.950743    0.372201    0.372208    0.372208    0.000001   -0.000011   -0.000001
   16.960176    0.372903    0.372910    0.372910    0.000001   -0.000011   -0.000001
   16.969608    0.373604    0.373611    0.373611    0.000001   -0.000011   -0.000001
   16.979041    0.374304    0.374311    0.374311    0.000001   -0.000011   -0.000001
   16.988474    0.375003    0.375010    0.375010    0.000001   -0.000011   -0.000001
   16.997907    0.375701    0.375707    0.375708    0.000001   -0.000011   -0.000001
   17.007340    0.376397    0.376404    0.376404    0.000001   -0.000011   -0.000001
   17.016772    0.377092    0.377099    0.377099    0.000001   -0.000011   -0.000001
   17.026205    0.377786    0.377793    0.377793    0.000001   -0.000011   -0.000001
   17.035638    0.378479    0.378486    0.378486    0.000001   -0.000011   -0.000001
   17.045071    0.379171    0.379178    0.379178    0.000001   -0.000011   -0.000001
   17.054504    0.379862    0.379868    0.379869    0.000001   -0.000011   -0.000001
   17.063936    0.380551    0.380558    0.380558    0.000001   -0.000011   -0.000001
   17.073369    0.381239    0.381246    0.381246    0.000001   -0.000011   -0.000001
   17.082802    0.381927    0.381933    0.381933    0.000001   -0.000011   -0.000001
   17.092235    0.382613    0.382619    0.382619    0.000001   -0.000011   -0.000001
   17.101668    0.383297    0.383304    0.383304    0.000001   -0.000011   -0.000001
   17.111100    0.383981    0.383988    0.383988    0.000001   -0.000011   -0.000001
   17.120533    0.384664    0.384670    0.384670    0.000001   -0.000011   -0.000001
   17.129966    0.385345    0.385352    0.385352    0.000001   -0.000011   -0.000001
   17.139399    0.386025    0.386032    0.386032    0.000001   -0.000011   -0.000001
   17.148832    0.386705    0.386711    0.386711    0.000001   -0.000011   -0.000001
   17.158264    0.387383    0.387389    0.387389    0.000001   -0.000011   -0.000001
   17.167697    0.388060    0.388066    0.388066    0.000001   -0.000011   -0.000001
   17.177130    0.388735    0.388742    0.388742    0.000001   -0.000011   -0.000001
   17.186563    0.389410    0.389416    0.389417    0.000001   -0.000011   -0.000001
   17.195996    0.390084    0.390090    0.390090    0.000001   -0.000011   -0.000001
   17.205428    0.390756    0.390762    0.390763    0.000001   -0.000011   -0.000001
   17.214861    0.391427    0.391434    0.391434    0.000001   -0.000011   -0.000001
   17.224294    0.392097    0.392104    0.392104    0.000001   -0.000011   -0.000001
   17.233727    0.392767    0.392773    0.392773    0.000001   -0.000011   -0.000001
   17.243160    0.393435    0.393441    0.393441    0.000001   -0.000011   -0.000001
   17.252592    0.394101    0.394108    0.394108    0.000001   -0.000011   -0.000001
   17.262025    0.394767    0.394774    0.394774    0.000001   -0.000011   -0.000001
   17.271458    0.395432    0.395438    0.395439    0.000001   -0.000011   -0.000001
   17.280891    0.396096    0.396102    0.396102    0.000001   -0.000011   -0.000001
   17.290324    0.396758    0.396764    0.396765    0.000001   -0.000011   -0.000001
   17.299756    0.397419    0.397426    0.397426    0.000001   -0.000011   -0.000001
   17.309189    0.398080    0.398086    0.398086    0.000001   -0.000011   -0.000001
   17.318622    0.398739    0.398745    0.398746    0.000001   -0.000011   -0.000001
   17.328055    0.399397    0.399403    0.399404    0.000001   -0.000011   -0.000001
   17.337488    0.400054    0.400060    0.400061    0.000001   -0.000011   -0.000001
   17.346920    0.400710    0.400716    0.400717    0.000001   -0.000010   -0.000001
   17.356353    0.401365    0.401371    0.401372    0.000001   -0.000010   -0.000001
   17.365786    0.402019    0.402025    0.402025    0.000001   -0.000010   -0.000001
   17.375219    0.402672    0.402678    0.402678    0.000001   -0.000010   -0.000001
   17.384652    0.403323    0.403330    0.403330    0.000001   -0.000010   -0.000001
   17.394084    0.403974    0.403980    0.403980    0.000001   -0.000010   -0.000001
   17.403517    0.404624    0.404630    0.404630    0.000001   -0.000010   -0.000001
   17.412950    0.405272    0.405278    0.405278    0.000001   -0.000010   -0.000001
   17.422383    0.405919    0.405926    0.405926    0.000001   -0.000010   -0.000001
   17.431816    0.406566    0.406572    0.406572    0.000001   -0.000010   -0.000001
   17.441248    0.407211    0.407217    0.407218    0.000001   -0.000010   -0.000001
   17.450681    0.407855    0.407862    0.407862    0.000001   -0.000010   -0.000001
   17.460114    0.408499    0.408505    0.408505    0.000001   -0.000010   -0.000001
   17.469547    0.409141    0.409147    0.409147    0.000001   -0.000010   -0.000001
   17.478980    0.409782    0.409788    0.409788    0.000001   -0.000010   -0.000001
   17.488412    0.410422    0.410428    0.410428    0.000001   -0.000010   -0.000001
   17.497845    0.411061    0.411067    0.411067    0.000001   -0.000010   -0.000001
   17.507278    0.411699    0.411705    0.411705    0.000001   -0.000010   -0.000001
   17.516711    0.412336    0.412342    0.412342    0.000001   -0.000010   -0.000001
   17.526144    0.412972    0.412978    0.412978    0.000001   -0.000010   -0.000001
   17.535576    0.413607    0.413613    0.413613    0.000001   -0.000010   -0.000001
   17.545009    0.414240    0.414247    0.414247    0.000001   -0.000010   -0.000001
   17.554442    0.414873    0.414879    0.414880    0.000001   -0.000010   -0.000001
   17.563875    0.415505    0.415511    0.415511    0.000001   -0.000010   -0.000001
   17.573308    0.416136    0.416142    0.416142    0.000001   -0.000010   -0.000001
   17.582740    0.416766    0.416772    0.416772    0.000001   -0.000010   -0.000001
   17.592173    0.417394    0.417400    0.417400    0.000001   -0.000010   -0.000001
   17.601606    0.418022    0.418028    0.418028    0.000001   -0.000010   -0.000001
   17.611039    0.418649    0.418655    0.418655    0.000001   -0.000010   -0.000001
   17.620472    0.419274    0.419280    0.419281    0.000001   -0.000010   -0.000001
   17.629904    0.419899    0.419905    0.419905    0.000001   -0.000010   -0.000001
   17.639337    0.420523    0.420529    0.420529    0.000001   -0.000010   -0.000001
   17.648770    0.421145    0.421151    0.421151    0.000001   -0.000010   -0.000001
   17.658203    0.421767    0.421773    0.421773    0.000001   -0.000010   -0.000001
   17.667636    0.422388    0.422393    0.422394    0.000001   -0.000010   -0.000001
   17.677068    0.423007    0.423013    0.423013    0.000001   -0.000010   -0.000001
   17.686501    0.423626    0.423632    0.423632    0.000001   -0.000010   -0.000001
   17.695934    0.424243    0.424249    0.424250    0.000001   -0.000010   -0.000001
   17.705367    0.424860    0.424866    0.424866    0.000001   -0.000010   -0.000001
   17.714800    0.425476    0.425482    0.425482    0.000001   -0.000010   -0.000001
   17.724232    0.426090    0.426096    0.426096    0.000001   -0.000010   -0.000001
   17.733665    0.426704    0.426710    0.426710    0.000001   -0.000010   -0.000001
   17.743098    0.427317    0.427323    0.427323    0.000001   -0.000010   -0.000001
   17.752531    0.427928    0.427934    0.427934    0.000001   -0.000010   -0.000001
   17.761964    0.428539    0.428545    0.428545    0.000001   -0.000010   -0.000001
   17.771396    0.429149    0.429155    0.429155    0.000001   -0.000010   -0.000001
   17.780829    0.429758    0.429763    0.429764    0.000001   -0.000010   -0.000001
   17.790262    0.430365    0.430371    0.430371    0.000001   -0.000010   -0.000001
   17.799695    0.430972    0.430978    0.430978    0.000001   -0.000010   -0.000001
   17.809128    0.431578    0.431584    0.431584    0.000001   -0.000010   -0.000001
   17.818560    0.432183    0.432189    0.432189    0.000001   -0.000010   -0.000001
   17.827993    0.432787    0.432793    0.432793    0.000001   -0.000010   -0.000001
   17.837426    0.433390    0.433396    0.433396    0.000001   -0.000010   -0.000001
   17.846859    0.433992    0.433998    0.433998    0.000001   -0.000010   -0.000001
   17.856292    0.434593    0.434599    0.434599    0.000001   -0.000010   -0.000001
   17.865724    0.435193    0.435199    0.435199    0.000001   -0.000010   -0.000001
   17.875157    0.435792    0.435798    0.435798    0.000001   -0.000010   -0.000001
   17.884590    0.436390    0.436396    0.436396    0.000001   -0.000010   -0.000001
   17.894023    0.436987    0.436993    0.436993    0.000001   -0.000010   -0.000001
   17.903456    0.437584    0.437589    0.437590    0.000001   -0.000010   -0.000001
   17.912888    0.438179    0.438185    0.438185    0.000001   -0.000010   -0.000001
   17.922321    0.438773    0.438779    0.438779    0.000001   -0.000010   -0.000001
   17.931754    0.439367    0.439372    0.439373    0.000001   -0.000010   -0.000001
   17.941187    0.439959    0.439965    0.439965    0.000001   -0.000010   -0.000001
   17.950620    0.440551    0.440556    0.440557    0.000001   -0.000010   -0.000001
   17.960052    0.441141    0.441147    0.441147    0.000001   -0.000010   -0.000001
   17.969485    0.441731    0.441737    0.441737    0.000001   -0.000010   -0.000001
   17.978918    0.442320    0.442325    0.442325    0.000001   -0.000010   -0.000001
   17.988351    0.442907    0.442913    0.442913    0.000001   -0.000010   -0.000001
   17.997784    0.443494    0.443500    0.443500    0.000001   -0.000010   -0.000001
   18.007216    0.444080    0.444086    0.444086    0.000001   -0.000010   -0.000001
   18.016649    0.444665    0.444671    0.444671    0.000001   -0.000010   -0.000001
   18.026082    0.445249    0.445255    0.445255    0.000001   -0.000010   -0.000001
   18.035515    0.445832    0.445838    0.445838    0.000001   -0.000010   -0.000001
   18.044948    0.446415    0.446420    0.446420    0.000001   -0.000010   -0.000001
   18.054380    0.446996    0.447001    0.447002    0.000001   -0.000010   -0.000001
   18.063813    0.447576    0.447582    0.447582    0.000001   -0.000010   -0.000001
   18.073246    0.448156    0.448161    0.448162    0.000001   -0.000010   -0.000001
   18.082679    0.448734    0.448740    0.448740    0.000001   -0.000010   -0.000001
   18.092112    0.449312    0.449318    0.449318    0.000001   -0.000010   -0.000001
   18.101544    0.449889    0.449894    0.449894    0.000001   -0.000010   -0.000001
   18.110977    0.450465    0.450470    0.450470    0.000001   -0.000009   -0.000001
   18.120410    0.451040    0.451045    0.451045    0.000001   -0.000009   -0.000001
   18.129843    0.451614    0.451619    0.451619    0.000001   -0.000009   -0.000001
   18.139276    0.452187    0.452192    0.452192    0.000001   -0.000009   -0.000001
   18.148708    0.452759    0.452764    0.452765    0.000001   -0.000009   -0.000001
   18.158141    0.453330    0.453336    0.453336    0.000001   -0.000009   -0.000001
   18.167574    0.453901    0.453906    0.453906    0.000001   -0.000009   -0.000001
   18.177007    0.454470    0.454476    0.454476    0.000001   -0.000009   -0.000001
   18.186440    0.455039    0.455044    0.455044    0.000001   -0.000009   -0.000001
   18.195872    0.455607    0.455612    0.455612    0.000001   -0.000009   -0.000001
   18.205305    0.456173    0.456179    0.456179    0.000001   -0.000009   -0.000001
   18.214738    0.456739    0.456745    0.456745    0.000001   -0.000009   -0.000001
   18.224171    0.457305    0.457310    0.457310    0.000001   -0.000009   -0.000001
   18.233604    0.457869    0.457874    0.457874    0.000001   -0.000009   -0.000001
   18.243036    0.458432    0.458437    0.458438    0.000001   -0.000009   -0.000001
   18.252469    0.458995    0.459000    0.459000    0.000001   -0.000009   -0.000001
   18.261902    0.459556    0.459561    0.459562    0.000001   -0.000009   -0.000001
   18.271335    0.460117    0.460122    0.460122    0.000001   -0.000009   -0.000001
   18.280768    0.460677    0.460682    0.460682    0.000001   -0.000009   -0.000001
   18.290200    0.461236    0.461241    0.461241    0.000001   -0.000009   -0.000001
   18.299633    0.461794    0.461799    0.461799    0.000001   -0.000009   -0.000001
   18.309066    0.462351    0.462356    0.462356    0.000001   -0.000009   -0.000001
   18.318499    0.462907    0.462913    0.462913    0.000001   -0.000009   -0.000001
   18.327932    0.463463    0.463468    0.463468    0.000001   -0.000009   -0.000001
   18.337364    0.464017    0.464023    0.464023    0.000001   -0.000009   -0.000001
   18.346797    0.464571    0.464576    0.464577    0.000001   -0.000009   -0.000001
   18.356230    0.465124    0.465129    0.465129    0.000001   -0.000009   -0.000001
   18.365663    0.465676    0.465681    0.465681    0.000001   -0.000009   -0.000001
   18.375096    0.466227    0.466232    0.466233    0.000001   -0.000009   -0.000001
   18.384528    0.466778    0.466783    0.466783    0.000001   -0.000009   -0.000001
   18.393961    0.467327    0.467332    0.467332    0.000001   -0.000009   -0.000001
   18.403394    0.467876    0.467881    0.467881    0.000001   -0.000009   -0.000001
   18.412827    0.468423    0.468429    0.468429    0.000001   -0.000009   -0.000001
   18.422260    0.468970    0.468976    0.468976    0.000001   -0.000009   -0.000001
   18.431692    0.469517    0.469522    0.469522    0.000001   -0.000009   -0.000001
   18.441125    0.470062    0.470067    0.470067    0.000001   -0.000009   -0.000001
   18.450558    0.470606    0.470611    0.470612    0.000001   -0.000009   -0.000001
   18.459991    0.471150    0.471155    0.471155    0.000001   -0.000009   -0.000001
   18.469424    0.471692    0.471698    0.471698    0.000001   -0.000009   -0.000001
   18.478856    0.472234    0.472239    0.472240    0.000001   -0.000009   -0.000001
   18.488289    0.472775    0.472781    0.472781    0.000001   -0.000009   -0.000001
   18.497722    0.473316    0.473321    0.473321    0.000001   -0.000009   -0.000001
   18.507155    0.473855    0.473860    0.473860    0.000001   -0.000009   -0.000001
   18.516588    0.474394    0.474399    0.474399    0.000001   -0.000009   -0.000001
   18.526020    0.474931    0.474936    0.474937    0.000001   -0.000009   -0.000001
   18.535453    0.475468    0.475473    0.475473    0.000001   -0.000009   -0.000001
   18.544886    0.476004    0.476009    0.476010    0.000001   -0.000009   -0.000001
   18.554319    0.476540    0.476545    0.476545    0.000001   -0.000009   -0.000001
   18.563752    0.477074    0.477079    0.477079    0.000001   -0.000009   -0.000001
   18.573184    0.477608    0.477613    0.477613    0.000001   -0.000009   -0.000001
   18.582617    0.478140    0.478145    0.478146    0.000001   -0.000009   -0.000001
   18.592050    0.478672    0.478677    0.478678    0.000001   -0.000009   -0.000001
   18.601483    0.479204    0.479209    0.479209    0.000001   -0.000009   -0.000001
   18.610916    0.479734    0.479739    0.479739    0.000001   -0.000009   -0.000001
   18.620348    0.480263    0.480268    0.480269    0.000001   -0.000009   -0.000001
   18.629781    0.480792    0.480797    0.480797    0.000001   -0.000009   -0.000001
   18.639214    0.481320    0.481325    0.481325    0.000001   -0.000009   -0.000001
   18.648647    0.481847    0.481852    0.481852    0.000001   -0.000009   -0.000001
   18.658080    0.482374    0.482379    0.482379    0.000001   -0.000009   -0.000001
   18.667512    0.482899    0.482904    0.482904    0.000001   -0.000009   -0.000001
   18.676945    0.483424    0.483429    0.483429    0.000001   -0.000009   -0.000001
   18.686378    0.483948    0.483953    0.483953    0.000001   -0.000009   -0.000001
   18.695811    0.484471    0.484476    0.484476    0.000001   -0.000009   -0.000001
   18.705244    0.484993    0.484998    0.484998    0.000001   -0.000009   -0.000001
   18.714676    0.485515    0.485520    0.485520    0.000001   -0.000009   -0.000001
   18.724109    0.486035    0.486040    0.486041    0.000001   -0.000009   -0.000001
   18.733542    0.486555    0.486560    0.486560    0.000001   -0.000009   -0.000001
   18.742975    0.487074    0.487079    0.487080    0.000001   -0.000009   -0.000001
   18.752408    0.487593    0.487598    0.487598    0.000001   -0.000009   -0.000001
   18.761840    0.488110    0.488115    0.488115    0.000001   -0.000009   -0.000001
   18.771273    0.488627    0.488632    0.488632    0.000001   -0.000009   -0.000001
   18.780706    0.489143    0.489148    0.489148    0.000001   -0.000009   -0.000001
   18.790139    0.489658    0.489663    0.489663    0.000001   -0.000009   -0.000001
   18.799572    0.490173    0.490178    0.490178    0.000001   -0.000009   -0.000001
   18.809004    0.490687    0.490691    0.490692    0.000001   -0.000009   -0.000001
   18.818437    0.491199    0.491204    0.491204    0.000001   -0.000009   -0.000001
   18.827870    0.491712    0.491716    0.491717    0.000001   -0.000009   -0.000001
   18.837303    0.492223    0.492228    0.492228    0.000001   -0.000009   -0.000001
   18.846736    0.492733    0.492738    0.492738    0.000001   -0.000009   -0.000001
   18.856168    0.493243    0.493248    0.493248    0.000001   -0.000009   -0.000001
 
 The outermost node in the dielectric function lies at epsilon=  13.5


--------------------------------------------------------------------------------------------------------


    OPTICS:  cpu time    1.3441: real time    1.3566
    4ORBIT:  cpu time    0.0000: real time    0.0000

 total amount of memory used by VASP MPI-rank0    35981. kBytes
=======================================================================

   base      :      30000. kBytes
   nonl-proj :        525. kBytes
   fftplans  :       1676. kBytes
   grid      :       2560. kBytes
   one-center:         12. kBytes
   wavefun   :       1208. kBytes
 
  
  
 General timing and accounting informations for this job:
 ========================================================
  
                  Total CPU time used (sec):       34.774
                            User time (sec):       33.998
                          System time (sec):        0.776
                         Elapsed time (sec):       35.152
  
                   Maximum memory used (kb):      202296.
                   Average memory used (kb):           0.
  
                          Minor page faults:       151297
                          Major page faults:            0
                 Voluntary context switches:          465
