 vasp.5.4.4.18Apr17-6-g9f103f2a35 (build Jun 23 2019 22:28:50) complex          
  
 executed on               Archer date 2019.06.24  07:53:15
 running on    1 total cores
 distrk:  each k-point on    1 cores,    1 groups
 distr:  one band on NCORES_PER_BAND=   1 cores,    1 groups


--------------------------------------------------------------------------------------------------------


 INCAR:
 POTCAR:    PAW Al 17Apr2000                      
 POTCAR:    PAW Al 17Apr2000                      
   VRHFIN =Al: s2p1                                                             
   LEXCH  = CA                                                                  
   EATOM  =    53.7930 eV,    3.9537 Ry                                         
                                                                                
   TITEL  = PAW Al 17Apr2000                                                    
   LULTRA =        F    use ultrasoft PP ?                                      
   IUNSCR =        1    unscreen: 0-lin 1-nonlin 2-no                           
   RPACOR =    1.500    partial core radius                                     
   POMASS =   26.981; ZVAL   =    3.000    mass and valenz                      
   RCORE  =    1.900    outmost cutoff radius                                   
   RWIGS  =    2.650; RWIGS  =    1.402    wigner-seitz radius (au A)           
   ENMAX  =  240.957; ENMIN  =  180.718 eV                                      
   ICORE  =        2    local potential                                         
   LCOR   =        T    correct aug charges                                     
   LPAW   =        T    paw PP                                                  
   EAUG   =  291.052                                                            
   DEXC   =    0.000                                                            
   RMAX   =    1.939    core radius for proj-oper                               
   RAUG   =    1.300    factor for augmentation sphere                          
   RDEP   =    1.966    radius for radial grids                                 
   RDEPT  =    1.871    core radius for aug-charge                              
                                                                                
   Atomic configuration                                                         
    6 entries                                                                   
     n  l   j            E        occ.                                          
     1  0  0.50     -1502.2303   2.0000                                         
     2  0  0.50      -107.3893   2.0000                                         
     2  1  1.50       -69.6946   6.0000                                         
     3  0  0.50        -7.8312   2.0000                                         
     3  1  1.50        -2.7901   1.0000                                         
     3  2  2.50        -2.7212   0.0000                                         
   Description                                                                  
     l       E           TYP  RCUT    TYP  RCUT                                 
     0     -7.8312058     23  1.900                                             
     0     -3.5156079     23  1.900                                             
     1     -2.7900872     23  1.900                                             
     1     13.6058260     23  1.900                                             
     2     -2.7211652      7  1.900                                             
  local pseudopotential read in
  partial core-charges read in
  partial kinetic energy density read in
  atomic valenz-charges read in
  non local Contribution for L=           0  read in
    real space projection operators read in
  non local Contribution for L=           0  read in
    real space projection operators read in
  non local Contribution for L=           1  read in
    real space projection operators read in
  non local Contribution for L=           1  read in
    real space projection operators read in
    PAW grid and wavefunctions read in
 
   number of l-projection  operators is LMAX  =           4
   number of lm-projection operators is LMMAX =           8
 
  PAW Al 17Apr2000                      :
 energy of atom  1       EATOM=  -53.7930
 kinetic energy error for atom=    0.0031 (will be added to EATOM!!)
 
 
 POSCAR: al                                      
  positions in direct lattice
  No initial velocities read in
 exchange correlation table for  LEXCH =        2
   RHO(1)=    0.500       N(1)  =     2000
   RHO(2)=  100.500       N(2)  =     4000
 


--------------------------------------------------------------------------------------------------------


 ion  position               nearest neighbor table
   1  0.000  0.000  0.000-   2 3.32   3 3.32   4 3.32   2 3.32   3 3.32   2 3.32   4 3.32   2 3.32
                             3 3.32   4 3.32   3 3.32   4 3.32
   2  0.000  0.500  0.500-   1 3.32   3 3.32   4 3.32   1 3.32   4 3.32   1 3.32   3 3.32   1 3.32
                             3 3.32   4 3.32   4 3.32   3 3.32
   3  0.500  0.000  0.500-   1 3.32   2 3.32   4 3.32   1 3.32   4 3.32   2 3.32   4 3.32   4 3.32
                             1 3.32   2 3.32   1 3.32   2 3.32
   4  0.500  0.500  0.000-   1 3.32   2 3.32   3 3.32   2 3.32   3 3.32   1 3.32   3 3.32   3 3.32
                             1 3.32   2 3.32   2 3.32   1 3.32
 

IMPORTANT INFORMATION: All symmetrisations will be switched off!
NOSYMM: (Re-)initialisation of all symmetry stuff for point group C_1.

 
 
 KPOINTS: 2 2 2                                   

Automatic generation of k-mesh.
Space group operators:
 irot       det(A)        alpha          n_x          n_y          n_z        tau_x        tau_y        tau_z
    1     1.000000     0.000000     1.000000     0.000000     0.000000     0.000000     0.000000     0.000000
 
 Subroutine IBZKPT returns following result:
 ===========================================
 
 Found      8 irreducible k-points:
 
 Following reciprocal coordinates:
            Coordinates               Weight
  0.000000  0.000000  0.000000      1.000000
  0.500000  0.000000  0.000000      1.000000
  0.000000  0.500000  0.000000      1.000000
  0.500000  0.500000  0.000000      1.000000
  0.000000  0.000000  0.500000      1.000000
  0.500000  0.000000  0.500000      1.000000
  0.000000  0.500000  0.500000      1.000000
  0.500000  0.500000  0.500000      1.000000
 
 Following cartesian coordinates:
            Coordinates               Weight
  0.000000  0.000000  0.000000      1.000000
  0.106383  0.000000  0.000000      1.000000
  0.000000  0.106383  0.000000      1.000000
  0.106383  0.106383  0.000000      1.000000
  0.000000  0.000000  0.106383      1.000000
  0.106383  0.000000  0.106383      1.000000
  0.000000  0.106383  0.106383      1.000000
  0.106383  0.106383  0.106383      1.000000
 


--------------------------------------------------------------------------------------------------------




 Dimension of arrays:
   k-points           NKPTS =      8   k-points in BZ     NKDIM =      8   number of bands    NBANDS=     10
   number of dos      NEDOS =    301   number of ions     NIONS =      4
   non local maximal  LDIM  =      4   non local SUM 2l+1 LMDIM =      8
   total plane-waves  NPLWV =   5832
   max r-space proj   IRMAX =      1   max aug-charges    IRDMAX=   2385
   dimension x,y,z NGX =    18 NGY =   18 NGZ =   18
   dimension x,y,z NGXF=    36 NGYF=   36 NGZF=   36
   support grid    NGXF=    36 NGYF=   36 NGZF=   36
   ions per type =               4
   NGX,Y,Z   is equivalent  to a cutoff of   6.37,  6.37,  6.37 a.u.
   NGXF,Y,Z  is equivalent  to a cutoff of  12.73, 12.73, 12.73 a.u.

 SYSTEM =  unknown system                          
 POSCAR =  al                                      

 Startparameter for this run:
   NWRITE =      2    write-flag & timer
   PREC   = normal    normal or accurate (medium, high low for compatibility)
   ISTART =      0    job   : 0-new  1-cont  2-samecut
   ICHARG =      2    charge: 1-file 2-atom 10-const
   ISPIN  =      1    spin polarized calculation?
   LNONCOLLINEAR =      F non collinear calculations
   LSORBIT =      F    spin-orbit coupling
   INIWAV =      1    electr: 0-lowe 1-rand  2-diag
   LASPH  =      F    aspherical Exc in radial PAW
   METAGGA=      F    non-selfconsistent MetaGGA calc.

 Electronic Relaxation 1
   ENCUT  =  241.0 eV  17.71 Ry    4.21 a.u.   5.95  5.95  5.95*2*pi/ulx,y,z
   ENINI  =  241.0     initial cutoff
   ENAUG  =  291.1 eV  augmentation charge cutoff
   NELM   =     60;   NELMIN=  2; NELMDL= -5     # of ELM steps 
   EDIFF  = 0.1E-03   stopping-criterion for ELM
   LREAL  =      F    real-space projection
   NLSPLINE    = F    spline interpolate recip. space projectors
   LCOMPAT=      F    compatible to vasp.4.4
   GGA_COMPAT  = T    GGA compatible to vasp.4.4-vasp.4.6
   LMAXPAW     = -100 max onsite density
   LMAXMIX     =    2 max onsite mixed and CHGCAR
   VOSKOWN=      0    Vosko Wilk Nusair interpolation
   ROPT   =    0.00000
 Ionic relaxation
   EDIFFG = 0.1E-02   stopping-criterion for IOM
   NSW    =      0    number of steps for IOM
   NBLOCK =      1;   KBLOCK =      1    inner block; outer block 
   IBRION =     -1    ionic relax: 0-MD 1-quasi-New 2-CG
   NFREE  =      0    steps in history (QN), initial steepest desc. (CG)
   ISIF   =      2    stress and relaxation
   IWAVPR =     10    prediction:  0-non 1-charg 2-wave 3-comb
   ISYM   =     -1    0-nonsym 1-usesym 2-fastsym
   LCORR  =      T    Harris-Foulkes like correction to forces

   POTIM  = 0.5000    time-step for ionic-motion
   TEIN   =    0.0    initial temperature
   TEBEG  =    0.0;   TEEND  =   0.0 temperature during run
   SMASS  =  -3.00    Nose mass-parameter (am)
   estimated Nose-frequenzy (Omega)   =  0.10E-29 period in steps =****** mass=  -0.505E-27a.u.
   SCALEE = 1.0000    scale energy and forces
   NPACO  =    256;   APACO  = 16.0  distance and # of slots for P.C.
   PSTRESS=    0.0 pullay stress

  Mass of Ions in am
   POMASS =  26.98
  Ionic Valenz
   ZVAL   =   3.00
  Atomic Wigner-Seitz radii
   RWIGS  =  -1.00
  virtual crystal weights 
   VCA    =   1.00
   NELECT =      12.0000    total number of electrons
   NUPDOWN=      -1.0000    fix difference up-down

 DOS related values:
   EMIN   =  10.00;   EMAX   =-10.00  energy-range for DOS
   EFERMI =   0.00
   ISMEAR =    -1;   SIGMA  =   0.03  broadening in eV -4-tet -1-fermi 0-gaus

 Electronic relaxation 2 (details)
   IALGO  =     38    algorithm
   LDIAG  =      T    sub-space diagonalisation (order eigenvalues)
   LSUBROT=      F    optimize rotation matrix (better conditioning)
   TURBO    =      0    0=normal 1=particle mesh
   IRESTART =      0    0=no restart 2=restart with 2 vectors
   NREBOOT  =      0    no. of reboots
   NMIN     =      0    reboot dimension
   EREF     =   0.00    reference energy to select bands
   IMIX   =      4    mixing-type and parameters
     AMIX     =   0.40;   BMIX     =  1.00
     AMIX_MAG =   1.60;   BMIX_MAG =  1.00
     AMIN     =   0.10
     WC   =   100.;   INIMIX=   1;  MIXPRE=   1;  MAXMIX= -45

 Intra band minimization:
   WEIMIN = 0.0000     energy-eigenvalue tresh-hold
   EBREAK =  0.25E-05  absolut break condition
   DEPER  =   0.30     relativ break condition  

   TIME   =   0.40     timestep for ELM

  volume/ion in A,a.u.               =      25.96       175.16
  Fermi-wavevector in a.u.,A,eV,Ry     =   0.797451  1.506964  8.652329  0.635928
  Thomas-Fermi vector in A             =   1.904171
 
 Write flags
   LWAVE        =      T    write WAVECAR
   LDOWNSAMPLE  =      F    k-point downsampling of WAVECAR
   LCHARG       =      T    write CHGCAR
   LVTOT        =      F    write LOCPOT, total local potential
   LVHAR        =      F    write LOCPOT, Hartree potential only
   LELF         =      F    write electronic localiz. function (ELF)
   LORBIT       =      0    0 simple, 1 ext, 2 COOP (PROOUT), +10 PAW based schemes


 Dipole corrections
   LMONO  =      F    monopole corrections only (constant potential shift)
   LDIPOL =      F    correct potential (dipole corrections)
   IDIPOL =      0    1-x, 2-y, 3-z, 4-all directions 
   EPSILON=  1.0000000 bulk dielectric constant

 Exchange correlation treatment:
   GGA     =    --    GGA type
   LEXCH   =     2    internal setting for exchange type
   VOSKOWN=      0    Vosko Wilk Nusair interpolation
   LHFCALC =     F    Hartree Fock is set to
   LHFONE  =     F    Hartree Fock one center treatment
   AEXX    =    0.0000 exact exchange contribution

 Linear response parameters
   LEPSILON=     F    determine dielectric tensor
   LRPA    =     F    only Hartree local field effects (RPA)
   LNABLA  =     F    use nabla operator in PAW spheres
   LVEL    =     F    velocity operator in full k-point grid
   LINTERFAST=   F  fast interpolation
   KINTER  =     0    interpolate to denser k-point grid
   CSHIFT  =0.1000    complex shift for real part using Kramers Kronig
   OMEGAMAX=  -1.0    maximum frequency
   DEG_THRESHOLD= 0.2000000E-02 threshold for treating states as degnerate
   RTIME   =   -0.100 relaxation time in fs
  (WPLASMAI=    0.000 imaginary part of plasma frequency in eV, 0.658/RTIME)
   DFIELD  = 0.0000000 0.0000000 0.0000000 field for delta impulse in time
 
 Orbital magnetization related:
   ORBITALMAG=     F  switch on orbital magnetization
   LCHIMAG   =     F  perturbation theory with respect to B field
   DQ        =  0.001000  dq finite difference perturbation B field
   LLRAUG    =     F  two centre corrections for induced B field



--------------------------------------------------------------------------------------------------------


 Static calculation
 charge density and potential will be updated during run
 non-spin polarized calculation
 Variant of blocked Davidson
 Davidson routine will perform the subspace rotation
 perform sub-space diagonalisation
    after iterative eigenvector-optimisation
 modified Broyden-mixing scheme, WC =      100.0
 initial mixing is a Kerker type mixing with AMIX =  0.4000 and BMIX =      1.0000
 Hartree-type preconditioning will be used
 using additional bands            4
 reciprocal scheme for non local part
 use partial core corrections
 calculate Harris-corrections to forces 
   (improved forces if not selfconsistent)
 use of overlap-Matrix (Vanderbilt PP)
 Fermi-smearing in eV        SIGMA  =   0.03


--------------------------------------------------------------------------------------------------------


  energy-cutoff  :      240.96
  volume of cell :      103.82
      direct lattice vectors                 reciprocal lattice vectors
     4.700000000  0.000000000  0.000000000     0.212765957  0.000000000  0.000000000
     0.000000000  4.700000000  0.000000000     0.000000000  0.212765957  0.000000000
     0.000000000  0.000000000  4.700000000     0.000000000  0.000000000  0.212765957

  length of vectors
     4.700000000  4.700000000  4.700000000     0.212765957  0.212765957  0.212765957


 
 k-points in units of 2pi/SCALE and weight: 2 2 2                                   
   0.00000000  0.00000000  0.00000000       0.125
   0.10638298  0.00000000  0.00000000       0.125
   0.00000000  0.10638298  0.00000000       0.125
   0.10638298  0.10638298  0.00000000       0.125
   0.00000000  0.00000000  0.10638298       0.125
   0.10638298  0.00000000  0.10638298       0.125
   0.00000000  0.10638298  0.10638298       0.125
   0.10638298  0.10638298  0.10638298       0.125
 
 k-points in reciprocal lattice and weights: 2 2 2                                   
   0.00000000  0.00000000  0.00000000       0.125
   0.50000000  0.00000000  0.00000000       0.125
   0.00000000  0.50000000  0.00000000       0.125
   0.50000000  0.50000000  0.00000000       0.125
   0.00000000  0.00000000  0.50000000       0.125
   0.50000000  0.00000000  0.50000000       0.125
   0.00000000  0.50000000  0.50000000       0.125
   0.50000000  0.50000000  0.50000000       0.125
 
 position of ions in fractional coordinates (direct lattice) 
   0.00000000  0.00000000  0.00000000
   0.00000000  0.50000000  0.50000000
   0.50000000  0.00000000  0.50000000
   0.50000000  0.50000000  0.00000000
 
 position of ions in cartesian coordinates  (Angst):
   0.00000000  0.00000000  0.00000000
   0.00000000  2.35000000  2.35000000
   2.35000000  0.00000000  2.35000000
   2.35000000  2.35000000  0.00000000
 


--------------------------------------------------------------------------------------------------------


 k-point  1 :   0.0000 0.0000 0.0000  plane waves:     895
 k-point  2 :   0.5000 0.0000 0.0000  plane waves:     884
 k-point  3 :   0.0000 0.5000 0.0000  plane waves:     884
 k-point  4 :   0.5000 0.5000 0.0000  plane waves:     872
 k-point  5 :   0.0000 0.0000 0.5000  plane waves:     884
 k-point  6 :   0.5000 0.0000 0.5000  plane waves:     872
 k-point  7 :   0.0000 0.5000 0.5000  plane waves:     872
 k-point  8 :   0.5000 0.5000 0.5000  plane waves:     912

 maximum and minimum number of plane-waves per node :       912      872

 maximum number of plane-waves:       912
 maximum index in each direction: 
   IXMAX=    5   IYMAX=    5   IZMAX=    5
   IXMIN=   -6   IYMIN=   -6   IZMIN=   -6


 serial   3D FFT for wavefunctions
 parallel 3D FFT for charge:
    minimum data exchange during FFTs selected (reduces bandwidth)


 total amount of memory used by VASP MPI-rank0    35981. kBytes
=======================================================================

   base      :      30000. kBytes
   nonl-proj :        525. kBytes
   fftplans  :       1676. kBytes
   grid      :       2560. kBytes
   one-center:         12. kBytes
   wavefun   :       1208. kBytes
 
     INWAV:  cpu time    0.0000: real time    0.0003
 Broyden mixing: mesh for mixing (old mesh)
   NGX = 11   NGY = 11   NGZ = 11
  (NGX  = 36   NGY  = 36   NGZ  = 36)
  gives a total of   1331 points

 initial charge density was supplied:
 charge density of overlapping atoms calculated
 number of electron      12.0000000 magnetization 
 keeping initial charge density in first step


--------------------------------------------------------------------------------------------------------


 Maximum index for augmentation-charges         2103 (set IRDMAX)


--------------------------------------------------------------------------------------------------------


 First call to EWALD:  gamma=   0.377
 Maximum number of real-space cells 3x 3x 3
 Maximum number of reciprocal cells 3x 3x 3

    FEWALD:  cpu time    0.0000: real time    0.0013


--------------------------------------- Iteration      1(   1)  ---------------------------------------


    POTLOK:  cpu time    0.0080: real time    0.0077
    SETDIJ:  cpu time    0.0000: real time    0.0028
     EDDAV:  cpu time    0.0800: real time    0.0789
       DOS:  cpu time    0.0000: real time    0.0001
    --------------------------------------------
      LOOP:  cpu time    0.0880: real time    0.0895

 eigenvalue-minimisations  :   160
 total energy-change (2. order) : 0.7390759E+00  (-0.2499706E+03)
 number of electron      12.0000000 magnetization 
 augmentation part       12.0000000 magnetization 

 Free energy of the ion-electron system (eV)
  ---------------------------------------------------
  alpha Z        PSCENC =        -0.52171640
  Ewald energy   TEWEN  =      -252.84653141
  -Hartree energ DENC   =        -2.30044706
  -exchange      EXHF   =         0.00000000
  -V(xc)+E(xc)   XCENC  =      -104.40038474
  PAW double counting   =       262.73615079     -138.52488030
  entropy T*S    EENTRO =        -0.00880321
  eigenvalues    EBANDS =        21.44610810
  atomic energy  EATOM  =       215.15958011
  Solvation  Ediel_sol  =         0.00000000
  ---------------------------------------------------
  free energy    TOTEN  =         0.73907588 eV

  energy without entropy =        0.74787909  energy(sigma->0) =        0.74347749


--------------------------------------------------------------------------------------------------------




--------------------------------------- Iteration      1(   2)  ---------------------------------------


     EDDAV:  cpu time    0.0960: real time    0.0944
       DOS:  cpu time    0.0000: real time    0.0001
    --------------------------------------------
      LOOP:  cpu time    0.0960: real time    0.0944

 eigenvalue-minimisations  :   204
 total energy-change (2. order) :-0.1325869E+02  (-0.1031554E+02)
 number of electron      12.0000000 magnetization 
 augmentation part       12.0000000 magnetization 

 Free energy of the ion-electron system (eV)
  ---------------------------------------------------
  alpha Z        PSCENC =        -0.52171640
  Ewald energy   TEWEN  =      -252.84653141
  -Hartree energ DENC   =        -2.30044706
  -exchange      EXHF   =         0.00000000
  -V(xc)+E(xc)   XCENC  =      -104.40038474
  PAW double counting   =       262.73615079     -138.52488030
  entropy T*S    EENTRO =        -0.01892576
  eigenvalues    EBANDS =         8.19754035
  atomic energy  EATOM  =       215.15958011
  Solvation  Ediel_sol  =         0.00000000
  ---------------------------------------------------
  free energy    TOTEN  =       -12.51961442 eV

  energy without entropy =      -12.50068866  energy(sigma->0) =      -12.51015154


--------------------------------------------------------------------------------------------------------




--------------------------------------- Iteration      1(   3)  ---------------------------------------


     EDDAV:  cpu time    0.0800: real time    0.0808
       DOS:  cpu time    0.0000: real time    0.0001
    --------------------------------------------
      LOOP:  cpu time    0.0800: real time    0.0808

 eigenvalue-minimisations  :   166
 total energy-change (2. order) :-0.2910769E+00  (-0.2670389E+00)
 number of electron      12.0000000 magnetization 
 augmentation part       12.0000000 magnetization 

 Free energy of the ion-electron system (eV)
  ---------------------------------------------------
  alpha Z        PSCENC =        -0.52171640
  Ewald energy   TEWEN  =      -252.84653141
  -Hartree energ DENC   =        -2.30044706
  -exchange      EXHF   =         0.00000000
  -V(xc)+E(xc)   XCENC  =      -104.40038474
  PAW double counting   =       262.73615079     -138.52488030
  entropy T*S    EENTRO =        -0.04215883
  eigenvalues    EBANDS =         7.92969655
  atomic energy  EATOM  =       215.15958011
  Solvation  Ediel_sol  =         0.00000000
  ---------------------------------------------------
  free energy    TOTEN  =       -12.81069129 eV

  energy without entropy =      -12.76853246  energy(sigma->0) =      -12.78961187


--------------------------------------------------------------------------------------------------------




--------------------------------------- Iteration      1(   4)  ---------------------------------------


     EDDAV:  cpu time    0.1040: real time    0.1053
       DOS:  cpu time    0.0000: real time    0.0001
    --------------------------------------------
      LOOP:  cpu time    0.1040: real time    0.1054

 eigenvalue-minimisations  :   230
 total energy-change (2. order) :-0.2414132E-02  (-0.2397539E-02)
 number of electron      12.0000000 magnetization 
 augmentation part       12.0000000 magnetization 

 Free energy of the ion-electron system (eV)
  ---------------------------------------------------
  alpha Z        PSCENC =        -0.52171640
  Ewald energy   TEWEN  =      -252.84653141
  -Hartree energ DENC   =        -2.30044706
  -exchange      EXHF   =         0.00000000
  -V(xc)+E(xc)   XCENC  =      -104.40038474
  PAW double counting   =       262.73615079     -138.52488030
  entropy T*S    EENTRO =        -0.04217514
  eigenvalues    EBANDS =         7.92729872
  atomic energy  EATOM  =       215.15958011
  Solvation  Ediel_sol  =         0.00000000
  ---------------------------------------------------
  free energy    TOTEN  =       -12.81310542 eV

  energy without entropy =      -12.77093028  energy(sigma->0) =      -12.79201785


--------------------------------------------------------------------------------------------------------




--------------------------------------- Iteration      1(   5)  ---------------------------------------


     EDDAV:  cpu time    0.0800: real time    0.0804
       DOS:  cpu time    0.0000: real time    0.0001
    CHARGE:  cpu time    0.0080: real time    0.0070
    MIXING:  cpu time    0.0000: real time    0.0008
    --------------------------------------------
      LOOP:  cpu time    0.0880: real time    0.0883

 eigenvalue-minimisations  :   164
 total energy-change (2. order) :-0.1468572E-04  (-0.1468499E-04)
 number of electron      12.0000001 magnetization 
 augmentation part       -0.2542784 magnetization 

 Broyden mixing:
  rms(total) = 0.16130E+00    rms(broyden)= 0.16127E+00
  rms(prec ) = 0.29145E+00
  weight for this iteration     100.00

 Free energy of the ion-electron system (eV)
  ---------------------------------------------------
  alpha Z        PSCENC =        -0.52171640
  Ewald energy   TEWEN  =      -252.84653141
  -Hartree energ DENC   =        -2.30044706
  -exchange      EXHF   =         0.00000000
  -V(xc)+E(xc)   XCENC  =      -104.40038474
  PAW double counting   =       262.73615079     -138.52488030
  entropy T*S    EENTRO =        -0.04217514
  eigenvalues    EBANDS =         7.92728404
  atomic energy  EATOM  =       215.15958011
  Solvation  Ediel_sol  =         0.00000000
  ---------------------------------------------------
  free energy    TOTEN  =       -12.81312010 eV

  energy without entropy =      -12.77094497  energy(sigma->0) =      -12.79203254


--------------------------------------------------------------------------------------------------------




--------------------------------------- Iteration      1(   6)  ---------------------------------------


    POTLOK:  cpu time    0.0040: real time    0.0043
    SETDIJ:  cpu time    0.0040: real time    0.0026
     EDDAV:  cpu time    0.0760: real time    0.0793
       DOS:  cpu time    0.0000: real time    0.0001
    CHARGE:  cpu time    0.0080: real time    0.0070
    MIXING:  cpu time    0.0000: real time    0.0007
    --------------------------------------------
      LOOP:  cpu time    0.0920: real time    0.0940

 eigenvalue-minimisations  :   160
 total energy-change (2. order) : 0.2498423E-01  (-0.8306265E-03)
 number of electron      12.0000001 magnetization 
 augmentation part       -0.2571422 magnetization 

 Broyden mixing:
  rms(total) = 0.92036E-01    rms(broyden)= 0.92034E-01
  rms(prec ) = 0.17673E+00
  weight for this iteration     100.00

 eigenvalues of (default mixing * dielectric matrix)
  average eigenvalue GAMMA=   2.2523
  2.2523

 Free energy of the ion-electron system (eV)
  ---------------------------------------------------
  alpha Z        PSCENC =        -0.52171640
  Ewald energy   TEWEN  =      -252.84653141
  -Hartree energ DENC   =        -2.04709053
  -exchange      EXHF   =         0.00000000
  -V(xc)+E(xc)   XCENC  =      -104.35351171
  PAW double counting   =       318.48825026     -194.26792702
  entropy T*S    EENTRO =        -0.04217514
  eigenvalues    EBANDS =         7.64298597
  atomic energy  EATOM  =       215.15958011
  Solvation  Ediel_sol  =         0.00000000
  ---------------------------------------------------
  free energy    TOTEN  =       -12.78813587 eV

  energy without entropy =      -12.74596074  energy(sigma->0) =      -12.76704830


--------------------------------------------------------------------------------------------------------




--------------------------------------- Iteration      1(   7)  ---------------------------------------


    POTLOK:  cpu time    0.0040: real time    0.0043
    SETDIJ:  cpu time    0.0040: real time    0.0029
     EDDAV:  cpu time    0.0800: real time    0.0794
       DOS:  cpu time    0.0000: real time    0.0001
    CHARGE:  cpu time    0.0080: real time    0.0068
    MIXING:  cpu time    0.0000: real time    0.0008
    --------------------------------------------
      LOOP:  cpu time    0.0960: real time    0.0943

 eigenvalue-minimisations  :   160
 total energy-change (2. order) : 0.1529071E-01  (-0.1994220E-02)
 number of electron      12.0000001 magnetization 
 augmentation part       -0.2617442 magnetization 

 Broyden mixing:
  rms(total) = 0.17268E-01    rms(broyden)= 0.17267E-01
  rms(prec ) = 0.20790E-01
  weight for this iteration     100.00

 eigenvalues of (default mixing * dielectric matrix)
  average eigenvalue GAMMA=   2.5880
  2.5880  2.5880

 Free energy of the ion-electron system (eV)
  ---------------------------------------------------
  alpha Z        PSCENC =        -0.52171640
  Ewald energy   TEWEN  =      -252.84653141
  -Hartree energ DENC   =        -1.74531150
  -exchange      EXHF   =         0.00000000
  -V(xc)+E(xc)   XCENC  =      -104.25595959
  PAW double counting   =       409.92813301     -285.70035618
  entropy T*S    EENTRO =        -0.04217513
  eigenvalues    EBANDS =         7.25149194
  atomic energy  EATOM  =       215.15958011
  Solvation  Ediel_sol  =         0.00000000
  ---------------------------------------------------
  free energy    TOTEN  =       -12.77284516 eV

  energy without entropy =      -12.73067002  energy(sigma->0) =      -12.75175759


--------------------------------------------------------------------------------------------------------




--------------------------------------- Iteration      1(   8)  ---------------------------------------


    POTLOK:  cpu time    0.0040: real time    0.0069
    SETDIJ:  cpu time    0.0040: real time    0.0027
     EDDAV:  cpu time    0.0560: real time    0.0579
       DOS:  cpu time    0.0000: real time    0.0001
    --------------------------------------------
      LOOP:  cpu time    0.0640: real time    0.0676

 eigenvalue-minimisations  :    96
 total energy-change (2. order) : 0.2548844E-04  (-0.9894884E-05)
 number of electron      12.0000001 magnetization 
 augmentation part       -0.2617442 magnetization 

 Free energy of the ion-electron system (eV)
  ---------------------------------------------------
  alpha Z        PSCENC =        -0.52171640
  Ewald energy   TEWEN  =      -252.84653141
  -Hartree energ DENC   =        -1.75856211
  -exchange      EXHF   =         0.00000000
  -V(xc)+E(xc)   XCENC  =      -104.24547475
  PAW double counting   =       390.83679711     -266.61919124
  entropy T*S    EENTRO =        -0.04217513
  eigenvalues    EBANDS =         7.26445416
  atomic energy  EATOM  =       215.15958011
  Solvation  Ediel_sol  =         0.00000000
  ---------------------------------------------------
  free energy    TOTEN  =       -12.77281967 eV

  energy without entropy =      -12.73064454  energy(sigma->0) =      -12.75173210


--------------------------------------------------------------------------------------------------------




 average (electrostatic) potential at core
  the test charge radii are     1.0406
  (the norm of the test charge is              1.0000)
       1 -75.0741       2 -75.0735       3 -75.0740       4 -75.0739
 
 
 
 E-fermi :   3.6321     XC(G=0):  -8.7370     alpha+bet : -9.4093


 k-point     1 :       0.0000    0.0000    0.0000
  band No.  band energies     occupation 
      1      -4.4904      2.00000
      2       1.9731      2.00000
      3       1.9732      2.00000
      4       1.9733      2.00000
      5       2.0321      2.00000
      6       2.0321      2.00000
      7       2.0321      2.00000
      8       7.7220      0.00000
      9       7.7221      0.00000
     10       7.7221      0.00000

 k-point     2 :       0.5000    0.0000    0.0000
  band No.  band energies     occupation 
      1      -2.8403      2.00000
      2      -2.8403      2.00000
      3       2.8514      2.00000
      4       2.8514      2.00000
      5       3.6046      1.50007
      6       3.6046      1.50006
      7       3.6046      1.49994
      8       3.6046      1.49993
      9       4.7016      0.00000
     10       4.7016      0.00000

 k-point     3 :       0.0000    0.5000    0.0000
  band No.  band energies     occupation 
      1      -2.8403      2.00000
      2      -2.8403      2.00000
      3       2.8513      2.00000
      4       2.8515      2.00000
      5       3.6046      1.50028
      6       3.6046      1.50027
      7       3.6046      1.49973
      8       3.6046      1.49972
      9       4.7016      0.00000
     10       4.7016      0.00000

 k-point     4 :       0.5000    0.5000    0.0000
  band No.  band energies     occupation 
      1      -1.2200      2.00000
      2      -1.2200      2.00000
      3      -1.2200      2.00000
      4      -1.2200      2.00000
      5       5.1712      0.00000
      6       5.1713      0.00000
      7       5.1713      0.00000
      8       5.1713      0.00000
      9       5.3397      0.00000
     10       5.3397      0.00000

 k-point     5 :       0.0000    0.0000    0.5000
  band No.  band energies     occupation 
      1      -2.8403      2.00000
      2      -2.8403      2.00000
      3       2.8514      2.00000
      4       2.8515      2.00000
      5       3.6046      1.50029
      6       3.6046      1.50023
      7       3.6046      1.49977
      8       3.6046      1.49971
      9       4.7016      0.00000
     10       4.7016      0.00000

 k-point     6 :       0.5000    0.0000    0.5000
  band No.  band energies     occupation 
      1      -1.2200      2.00000
      2      -1.2200      2.00000
      3      -1.2200      2.00000
      4      -1.2200      2.00000
      5       5.1712      0.00000
      6       5.1713      0.00000
      7       5.1713      0.00000
      8       5.1713      0.00000
      9       5.3397      0.00000
     10       5.3397      0.00000

 k-point     7 :       0.0000    0.5000    0.5000
  band No.  band energies     occupation 
      1      -1.2200      2.00000
      2      -1.2200      2.00000
      3      -1.2200      2.00000
      4      -1.2199      2.00000
      5       5.1713      0.00000
      6       5.1713      0.00000
      7       5.1713      0.00000
      8       5.1713      0.00000
      9       5.3397      0.00000
     10       5.3397      0.00000

 k-point     8 :       0.5000    0.5000    0.5000
  band No.  band energies     occupation 
      1      -0.0387      2.00000
      2      -0.0386      2.00000
      3      -0.0386      2.00000
      4      -0.0385      2.00000
      5       0.9547      2.00000
      6       0.9547      2.00000
      7       0.9547      2.00000
      8       0.9547      2.00000
      9      11.2232      0.00000
     10      11.2233      0.00000


--------------------------------------------------------------------------------------------------------


 soft charge-density along one line, spin component           1
         0         1         2         3         4         5         6         7         8         9
 total charge-density along one line
 
 pseudopotential strength for first ion, spin component:           1
  9.185  15.496  -0.000  -0.000  -0.000  -0.000  -0.000  -0.000
 15.496  26.147  -0.000  -0.000  -0.000  -0.000  -0.000  -0.000
 -0.000  -0.000   2.106   0.000   0.000   6.029   0.000   0.000
 -0.000  -0.000   0.000   2.106   0.000   0.000   6.029   0.000
 -0.000  -0.000   0.000   0.000   2.106   0.000   0.000   6.029
 -0.000  -0.000   6.029   0.000   0.000  17.171   0.000   0.000
 -0.000  -0.000   0.000   6.029   0.000   0.000  17.171   0.000
 -0.000  -0.000   0.000   0.000   6.029   0.000   0.000  17.171
 total augmentation occupancy for first ion, spin component:           1
  2.909  -0.504  -0.000   0.000   0.000  -0.000  -0.000  -0.000
 -0.504   0.172   0.000  -0.000  -0.000  -0.000   0.000   0.000
 -0.000   0.000   0.675   0.000  -0.000  -0.044  -0.000   0.000
  0.000  -0.000   0.000   0.675  -0.000  -0.000  -0.044   0.000
  0.000  -0.000  -0.000  -0.000   0.675   0.000  -0.000  -0.044
 -0.000  -0.000  -0.044  -0.000   0.000   0.003   0.000  -0.000
 -0.000   0.000  -0.000  -0.044  -0.000   0.000   0.003   0.000
 -0.000   0.000   0.000   0.000  -0.044  -0.000   0.000   0.003


------------------------ aborting loop because EDIFF is reached ----------------------------------------


    CHARGE:  cpu time    0.0080: real time    0.0070
    FORLOC:  cpu time    0.0000: real time    0.0013
    FORNL :  cpu time    0.0240: real time    0.0226
    STRESS:  cpu time    0.0360: real time    0.0382
    FORCOR:  cpu time    0.0040: real time    0.0047
    FORHAR:  cpu time    0.0040: real time    0.0038
    MIXING:  cpu time    0.0000: real time    0.0007
    OFIELD:  cpu time    0.0000: real time    0.0000

  FORCE on cell =-STRESS in cart. coord.  units (eV):
  Direction    XX          YY          ZZ          XY          YZ          ZX
  --------------------------------------------------------------------------------------
  Alpha Z    -0.52172    -0.52172    -0.52172
  Ewald     -84.28221   -84.28221   -84.28221     0.00000    -0.00000    -0.00000
  Hartree     0.58662     0.58662     0.58662     0.00000     0.00000     0.00000
  E(xc)     -33.21272   -33.21266   -33.21266    -0.00000    -0.00000    -0.00000
  Local     -11.75442   -11.75393   -11.75393    -0.00003    -0.00003    -0.00001
  n-local    81.89001    81.88954    81.88955     0.00001     0.00002     0.00001
  augment    -6.39948    -6.39947    -6.39947    -0.00000    -0.00000    -0.00000
  Kinetic    48.80613    48.80599    48.80600    -0.00000     0.00000     0.00000
  Fock        0.00000     0.00000     0.00000     0.00000     0.00000     0.00000
  -------------------------------------------------------------------------------------
  Total      -4.88779    -4.88782    -4.88782    -0.00002    -0.00001    -0.00001
  in kB     -75.42745   -75.42800   -75.42797    -0.00026    -0.00021    -0.00010
  external pressure =      -75.43 kB  Pullay stress =        0.00 kB


 VOLUME and BASIS-vectors are now :
 -----------------------------------------------------------------------------
  energy-cutoff  :      240.96
  volume of cell :      103.82
      direct lattice vectors                 reciprocal lattice vectors
     4.700000000  0.000000000  0.000000000     0.212765957  0.000000000  0.000000000
     0.000000000  4.700000000  0.000000000     0.000000000  0.212765957  0.000000000
     0.000000000  0.000000000  4.700000000     0.000000000  0.000000000  0.212765957

  length of vectors
     4.700000000  4.700000000  4.700000000     0.212765957  0.212765957  0.212765957


 FORCES acting on ions
    electron-ion (+dipol)            ewald-force                    non-local-force                 convergence-correction
 -----------------------------------------------------------------------------------------------
   -.192E-03 -.889E-04 -.724E-04   -.808E-15 -.720E-15 -.679E-15   0.530E-04 0.393E-04 0.148E-04   0.891E-04 0.358E-04 0.353E-04
   -.173E-03 0.265E-04 0.894E-04   -.787E-15 0.104E-14 0.212E-15   0.420E-04 0.514E-05 -.278E-04   0.834E-04 -.227E-04 -.387E-04
   0.160E-03 0.230E-04 0.932E-04   0.689E-15 -.105E-14 0.200E-15   -.323E-04 -.375E-04 -.279E-04   -.802E-04 0.993E-05 -.413E-04
   0.208E-03 0.361E-04 -.110E-03   0.710E-15 0.709E-15 0.100E-15   -.646E-04 -.423E-05 0.402E-04   -.925E-04 -.231E-04 0.448E-04
 -----------------------------------------------------------------------------------------------
   0.288E-05 -.316E-05 0.575E-06   -.196E-15 -.212E-16 -.167E-15   -.187E-05 0.268E-05 -.743E-06   -.176E-06 -.168E-07 0.119E-06
 
 
 POSITION                                       TOTAL-FORCE (eV/Angst)
 -----------------------------------------------------------------------------------
      0.00000      0.00000      0.00000        -0.000050     -0.000014     -0.000022
      0.00000      2.35000      2.35000        -0.000048      0.000009      0.000023
      2.35000      0.00000      2.35000         0.000047     -0.000004      0.000024
      2.35000      2.35000      0.00000         0.000051      0.000009     -0.000025
 -----------------------------------------------------------------------------------
    total drift:                                0.000001     -0.000000     -0.000000


--------------------------------------------------------------------------------------------------------



  FREE ENERGIE OF THE ION-ELECTRON SYSTEM (eV)
  ---------------------------------------------------
  free  energy   TOTEN  =       -12.77281967 eV

  energy  without entropy=      -12.73064454  energy(sigma->0) =      -12.75173210
 


--------------------------------------------------------------------------------------------------------


    POTLOK:  cpu time    0.0080: real time    0.0074


--------------------------------------------------------------------------------------------------------


 writing wavefunctions
     LOOP+:  cpu time    0.9201: real time    0.9361
    4ORBIT:  cpu time    0.0000: real time    0.0000

 total amount of memory used by VASP MPI-rank0    35981. kBytes
=======================================================================

   base      :      30000. kBytes
   nonl-proj :        525. kBytes
   fftplans  :       1676. kBytes
   grid      :       2560. kBytes
   one-center:         12. kBytes
   wavefun   :       1208. kBytes
 
  
  
 General timing and accounting informations for this job:
 ========================================================
  
                  Total CPU time used (sec):        1.400
                            User time (sec):        1.176
                          System time (sec):        0.224
                         Elapsed time (sec):        1.526
  
                   Maximum memory used (kb):       20856.
                   Average memory used (kb):           0.
  
                          Minor page faults:         5290
                          Major page faults:            0
                 Voluntary context switches:          313
